0 	0 	0 	0
0.00787401574803 	-0.000300142941482 	0.0245547686177 	0
0.0157480314961 	-0.00101484183054 	0.0468874612157 	0
0.0236220472441 	-0.00218042956129 	0.0675576157505 	0
0.0314960629921 	-0.00371488771986 	0.0866802227024 	0
0.0393700787402 	-0.00555873202909 	0.104284640694 	0
0.0472440944882 	-0.00765915947692 	0.120417656808 	0
0.0551181102362 	-0.00996688095693 	0.135125035349 	0
0.0629921259843 	-0.0124359933445 	0.148452221877 	0
0.0708661417323 	-0.015023953944 	0.160445448222 	0
0.0787401574803 	-0.0176921970758 	0.171151502816 	0
0.0866141732283 	-0.0204065299285 	0.180617636074 	0
0.0944881889764 	-0.023137408513 	0.188893817834 	0
0.102362204724 	-0.0258587662897 	0.196029529774 	0
0.110236220472 	-0.0285475722066 	0.202072099622 	0
0.11811023622 	-0.031184619982 	0.207070076401 	0
0.125984251969 	-0.0337545784096 	0.211072311708 	0
0.133858267717 	-0.036245457248 	0.214128172039 	0
0.141732283465 	-0.0386478958776 	0.216287185625 	0
0.149606299213 	-0.0409539686849 	0.217591359355 	0
0.157480314961 	-0.0431575836807 	0.218076649734 	0
0.165354330709 	-0.0452557987938 	0.217787890314 	0
0.173228346457 	-0.0472484572815 	0.216774685366 	0
0.181102362205 	-0.049137008417 	0.215084360757 	0
0.188976377953 	-0.0509229014897 	0.212753878748 	0
0.196850393701 	-0.0526082721009 	0.209819569248 	0
0.204724409449 	-0.0541963816199 	0.206325474532 	0
0.212598425197 	-0.0556910585701 	0.20230728231 	0
0.220472440945 	-0.0570974936191 	0.197797414174 	0
0.228346456693 	-0.0584215724401 	0.192832596599 	0
0.236220472441 	-0.0596690588358 	0.187450721172 	0
0.244094488189 	-0.0608455043384 	0.181686668234 	0
0.251968503937 	-0.0619561032173 	0.17557186445 	0
0.259842519685 	-0.0630058450806 	0.169136923723 	0
0.267716535433 	-0.063999539083 	0.162412398727 	0
0.275590551181 	-0.0649414643374 	0.155427142272 	0
0.283464566929 	-0.0658354802838 	0.148208292505 	0
0.291338582677 	-0.0666851956345 	0.140782128018 	0
0.299212598425 	-0.067493702275 	0.133173831955 	0
0.307086614173 	-0.0682633245379 	0.125406923654 	0
0.314960629921 	-0.0689958481623 	0.117503477007 	0
0.322834645669 	-0.069692742683 	0.109484499326 	0
0.330708661417 	-0.0703550584322 	0.101369919807 	0
0.338582677165 	-0.0709833731848 	0.0931784761427 	0
0.346456692913 	-0.0715778756508 	0.0849277004039 	0
0.354330708661 	-0.0721383174336 	0.0766339968068 	0
0.362204724409 	-0.0726639879943 	0.0683129186965 	0
0.370078740157 	-0.0731540114637 	0.0599794166952 	0
0.377952755906 	-0.0736074042692 	0.0516476452366 	0
0.385826771654 	-0.0740229521046 	0.0433309965888 	0
0.393700787402 	-0.0743990679893 	0.03504221032 	0
0.40157480315 	-0.074733882445 	0.0267933159219 	0
0.409448818898 	-0.07502546482 	0.0185959324095 	0
0.417322834646 	-0.0752718564923 	0.0104613490153 	0
0.425196850394 	-0.075470959191 	0.00240038787213 	0
0.433070866142 	-0.075620437963 	-0.00557658859436 	0
0.44094488189 	-0.0757178567531 	-0.0134594598914 	0
0.448818897638 	-0.075760812259 	-0.0212382450821 	0
0.456692913386 	-0.0757469318301 	-0.0289031682867 	0
0.464566929134 	-0.0756735337825 	-0.0364446454156 	0
0.472440944882 	-0.0755379437752 	-0.0438532268859 	0
0.48031496063 	-0.0753377677872 	-0.051119495136 	0
0.488188976378 	-0.075070734321 	-0.0582340915641 	0
0.496062992126 	-0.0747345127982 	-0.0651876542015 	0
0.503937007874 	-0.0743268284057 	-0.0719708341229 	0
0.511811023622 	-0.0738453930229 	-0.0785744124755 	0
0.51968503937 	-0.0732874568025 	-0.0849893417327 	0
0.527559055118 	-0.0726505810496 	-0.0912062988652 	0
0.535433070866 	-0.0719324486724 	-0.0972155591685 	0
0.543307086614 	-0.0711303205761 	-0.103007092061 	0
0.551181102362 	-0.0702418564032 	-0.108570879913 	0
0.55905511811 	-0.069265410504 	-0.113897363473 	0
0.566929133858 	-0.068199708443 	-0.118977071679 	0
0.574803149606 	-0.0670434554373 	-0.123800305579 	0
0.582677165354 	-0.0657953141687 	-0.128357090751 	0
0.590551181102 	-0.0644541777698 	-0.132637358346 	0
0.59842519685 	-0.0630193058838 	-0.13663103901 	0
0.606299212598 	-0.0614903746904 	-0.140328128444 	0
0.614173228346 	-0.0598675899586 	-0.143718881545 	0
0.622047244094 	-0.0581517036923 	-0.146793743868 	0
0.629921259843 	-0.0563440287424 	-0.149543237054 	0
0.637795275591 	-0.0544466061312 	-0.151958716123 	0
0.645669291339 	-0.0524621869995 	-0.154032275785 	0
0.653543307087 	-0.0503943371556 	-0.155756456399 	0
0.661417322835 	-0.0482475068106 	-0.157124681631 	0
0.669291338583 	-0.0460269590522 	-0.158131284189 	0
0.677165354331 	-0.0437388066791 	-0.1587718171 	0
0.685039370079 	-0.0413903812097 	-0.159043724595 	0
0.692913385827 	-0.0389916234152 	-0.158946457599 	0
0.700787401575 	-0.0365528014079 	-0.158479240783 	0
0.708661417323 	-0.0340813276641 	-0.157640705424 	0
0.716535433071 	-0.0315887645753 	-0.156435047834 	0
0.724409448819 	-0.0290925889177 	-0.154873665447 	0
0.732283464567 	-0.0266078024464 	-0.152968354953 	0
0.740157480315 	-0.0241489159317 	-0.150730773896 	0
0.748031496063 	-0.0217342056528 	-0.148176900426 	0
0.755905511811 	-0.0193826193434 	-0.145326856976 	0
0.763779527559 	-0.0171131730588 	-0.142204279298 	0
0.771653543307 	-0.0149464910204 	-0.138837461377 	0
0.779527559055 	-0.012903702593 	-0.135259173039 	0
0.787401574803 	-0.0110055711925 	-0.131506393309 	0
0.795275590551 	-0.00927213694023 	-0.127620342479 	0
0.803149606299 	-0.00772194389468 	-0.123646398744 	0
0.811023622047 	-0.0063715974878 	-0.119633621128 	0
0.818897637795 	-0.00523366190585 	-0.115632087287 	0
0.826771653543 	-0.00431553550256 	-0.111691780238 	0
0.834645669291 	-0.00362086119146 	-0.107865158323 	0
0.842519685039 	-0.00314794326559 	-0.104202836976 	0
0.850393700787 	-0.00288582342742 	-0.10074460903 	0
0.858267716535 	-0.00281544808412 	-0.0975197728262 	0
0.866141732283 	-0.00291009422518 	-0.0945442132288 	0
0.874015748031 	-0.00313422451526 	-0.0918124169621 	0
0.88188976378 	-0.00344580957222 	-0.0892949050489 	0
0.889763779528 	-0.00379879684254 	-0.0869372527789 	0
0.897637795276 	-0.00414590106193 	-0.0846614320252 	0
0.905511811024 	-0.00444339538536 	-0.0823735921051 	0
0.913385826772 	-0.00465254996767 	-0.0799668310522 	0
0.92125984252 	-0.00474324861461 	-0.0773284033143 	0
0.929133858268 	-0.0046875108543 	-0.0743196863191 	0
0.937007874016 	-0.00445539640806 	-0.0707580567295 	0
0.944881889764 	-0.00402111770461 	-0.0664021763344 	0
0.952755905512 	-0.00339583071541 	-0.0609964038994 	0
0.96062992126 	-0.00268175029925 	-0.0543962023137 	0
0.968503937008 	-0.00207520892952 	-0.0469873665782 	0
0.976377952756 	-0.00153316706907 	-0.038518367564 	0
0.984251968504 	-0.000774614657159 	-0.0278593791684 	0
0.992125984252 	-0.000133422520326 	-0.0145340809488 	0
1 	0 	0 	0
