0 	-0.0149137891035 	1.5295448516 	0 	9.47837846469 	0 	0 	-0.634227950964 	0.566361555999 	0 	2.8044528784 	0 	0
0.00787401574803 	-0.0589044542539 	1.22463062937 	0 	7.1709598344 	0 	0 	-0.644962202045 	0.560628426788 	0 	2.65260644914 	0 	0
0.0157480314961 	-0.101361147747 	0.954618812913 	0 	5.23140688105 	0 	0 	-0.669642266147 	0.544136070704 	0 	2.36360999169 	0 	0
0.0236220472441 	-0.135911441502 	0.757353870081 	0 	3.95700104225 	0 	0 	-0.690148341058 	0.520136150101 	0 	2.11838900243 	0 	0
0.0314960629921 	-0.160682359575 	0.61647440479 	0 	3.12550752524 	0 	0 	-0.698493937755 	0.490899412657 	0 	1.91797368467 	0 	0
0.0393700787402 	-0.179578417703 	0.507637312388 	0 	2.54989657941 	0 	0 	-0.698692140516 	0.455667505092 	0 	1.7528329133 	0 	0
0.0472440944882 	-0.193979763192 	0.421484713826 	0 	2.15664726331 	0 	0 	-0.692833799586 	0.41490282711 	0 	1.62341377538 	0 	0
0.0551181102362 	-0.204860968771 	0.351112400244 	0 	1.88575340313 	0 	0 	-0.683244520668 	0.370393811403 	0 	1.52474353539 	0 	0
0.0629921259843 	-0.213044226687 	0.292062398906 	0 	1.69843592602 	0 	0 	-0.672248652024 	0.324113973617 	0 	1.45141791976 	0 	0
0.0708661417323 	-0.219029319354 	0.24147638106 	0 	1.56703361604 	0 	0 	-0.661112943077 	0.27800926465 	0 	1.39727706705 	0 	0
0.0787401574803 	-0.223209447511 	0.197488736764 	0 	1.4729601276 	0 	0 	-0.650496640411 	0.233523594375 	0 	1.35697671718 	0 	0
0.0866141732283 	-0.225920880634 	0.158731741663 	0 	1.40222104146 	0 	0 	-0.640649700243 	0.1915189426 	0 	1.32546384045 	0 	0
0.0944881889764 	-0.227414286367 	0.124315348879 	0 	1.3461046631 	0 	0 	-0.631490032278 	0.152423036831 	0 	1.29935109393 	0 	0
0.102362204724 	-0.227888793877 	0.0936353113713 	0 	1.3000590377 	0 	0 	-0.62281073935 	0.116318893149 	0 	1.27689112372 	0 	0
0.110236220472 	-0.227504767682 	0.0660471212547 	0 	1.26073456825 	0 	0 	-0.614344056494 	0.0829582992144 	0 	1.25674600002 	0 	0
0.11811023622 	-0.226379835417 	0.0409504167757 	0 	1.22730127548 	0 	0 	-0.605831470603 	0.0519022355725 	0 	1.23881912876 	0 	0
0.125984251969 	-0.22460644513 	0.0178366999709 	0 	1.19985728652 	0 	0 	-0.597108922759 	0.0227523224845 	0 	1.22346456937 	0 	0
0.133858267717 	-0.222266188485 	-0.00369169343037 	0 	1.1784193751 	0 	0 	-0.588118777504 	-0.00476996190692 	0 	1.21093711844 	0 	0
0.141732283465 	-0.219433395507 	-0.0239266977547 	0 	1.16267424663 	0 	0 	-0.578868821292 	-0.0308312994943 	0 	1.20124852704 	0 	0
0.149606299213 	-0.216181893726 	-0.0429952516058 	0 	1.15155242598 	0 	0 	-0.569406798286 	-0.0554362455956 	0 	1.19390899115 	0 	0
0.157480314961 	-0.212602242876 	-0.0608055781556 	0 	1.1426444208 	0 	0 	-0.559826934415 	-0.0784059535301 	0 	1.18757873472 	0 	0
0.165354330709 	-0.208808089439 	-0.0770533780709 	0 	1.13209799989 	0 	0 	-0.550251936626 	-0.0994422022554 	0 	1.18000256317 	0 	0
0.173228346457 	-0.204914410777 	-0.0913327163364 	0 	1.11488181683 	0 	0 	-0.540767257703 	-0.118294331831 	0 	1.16812728665 	0 	0
0.181102362205 	-0.200986429305 	-0.103484570018 	0 	1.08841190645 	0 	0 	-0.531342921982 	-0.135014120079 	0 	1.1502581212 	0 	0
0.188976377953 	-0.196980018802 	-0.114297783011 	0 	1.06346926814 	0 	0 	-0.521808532274 	-0.150096810569 	0 	1.13310482191 	0 	0
0.196850393701 	-0.192765512908 	-0.125249971 	0 	1.05288803259 	0 	0 	-0.512014273087 	-0.164592652748 	0 	1.12489400098 	0 	0
0.204724409449 	-0.188233444435 	-0.137576168674 	0 	1.05558712393 	0 	0 	-0.502084943793 	-0.179950621653 	0 	1.12496912698 	0 	0
0.212598425197 	-0.183517518297 	-0.150760959862 	0 	1.06697089157 	0 	0 	-0.492316268149 	-0.195622117309 	0 	1.13042909911 	0 	0
0.220472440945 	-0.17920599843 	-0.160396870081 	0 	1.07667108414 	0 	0 	-0.482629569455 	-0.206642883082 	0 	1.13524605056 	0 	0
0.228346456693 	-0.175696115164 	-0.163673168519 	0 	1.07005175833 	0 	0 	-0.472995924598 	-0.210704936257 	0 	1.13046154521 	0 	0
0.236220472441 	-0.172908929738 	-0.161675091843 	0 	1.02658370378 	0 	0 	-0.463964538883 	-0.211146091042 	0 	1.10196062319 	0 	0
0.244094488189 	-0.170601202332 	-0.156573171341 	0 	0.948015371742 	0 	0 	-0.455768140382 	-0.210708016705 	0 	1.04876240735 	0 	0
0.251968503937 	-0.168369618797 	-0.150991396786 	0 	0.866461891589 	0 	0 	-0.447722118422 	-0.209987399692 	0 	0.990730314907 	0 	0
0.259842519685 	-0.165910886854 	-0.146009234461 	0 	0.799802379708 	0 	0 	-0.439008646422 	-0.20869877583 	0 	0.940810092547 	0 	0
0.267716535433 	-0.163207727383 	-0.141406285232 	0 	0.746235090076 	0 	0 	-0.429513379528 	-0.206616257168 	0 	0.898877345372 	0 	0
0.275590551181 	-0.160406610298 	-0.13653613599 	0 	0.697943878019 	0 	0 	-0.419562585441 	-0.203540664061 	0 	0.859599509877 	0 	0
0.283464566929 	-0.15756261704 	-0.131087361204 	0 	0.649717937366 	0 	0 	-0.409307529654 	-0.1994990563 	0 	0.818848426346 	0 	0
0.291338582677 	-0.154572333194 	-0.125216011559 	0 	0.59997310197 	0 	0 	-0.39856546019 	-0.194829806789 	0 	0.775023417658 	0 	0
0.299212598425 	-0.151290332943 	-0.119185429129 	0 	0.549826916549 	0 	0 	-0.38702773779 	-0.189763876762 	0 	0.728826496679 	0 	0
0.307086614173 	-0.147615638821 	-0.113228001713 	0 	0.500991126204 	0 	0 	-0.374501269089 	-0.184457459248 	0 	0.681692366007 	0 	0
0.314960629921 	-0.143487417737 	-0.107610043754 	0 	0.45434673969 	0 	0 	-0.360949382321 	-0.179251619712 	0 	0.634460237927 	0 	0
0.322834645669 	-0.138840513752 	-0.102541564628 	0 	0.410284471907 	0 	0 	-0.346309591774 	-0.174478135366 	0 	0.587622276021 	0 	0
0.330708661417 	-0.13358814673 	-0.0981287488955 	0 	0.369093613305 	0 	0 	-0.33042143537 	-0.170321180672 	0 	0.541671702674 	0 	0
0.338582677165 	-0.127685975077 	-0.0943678074722 	0 	0.330878967461 	0 	0 	-0.313216297631 	-0.166808082737 	0 	0.49697996161 	0 	0
0.346456692913 	-0.121166979405 	-0.0912219898641 	0 	0.295615021244 	0 	0 	-0.294837302411 	-0.163932750818 	0 	0.453806417385 	0 	0
0.354330708661 	-0.114012939995 	-0.0887477812412 	0 	0.263238235665 	0 	0 	-0.275323992995 	-0.161848789339 	0 	0.412358455009 	0 	0
0.362204724409 	-0.106163880427 	-0.0869351591746 	0 	0.233565196976 	0 	0 	-0.254587789603 	-0.160588518116 	0 	0.372697426016 	0 	0
0.370078740157 	-0.0976230456933 	-0.0856175498787 	0 	0.20633546354 	0 	0 	-0.232667388896 	-0.159900849301 	0 	0.33478579135 	0 	0
0.377952755906 	-0.088403591365 	-0.0847225164412 	0 	0.181379322046 	0 	0 	-0.209660174485 	-0.15968929626 	0 	0.298662170389 	0 	0
0.385826771654 	-0.0784954461875 	-0.084255747182 	0 	0.15857315582 	0 	0 	-0.18562932806 	-0.159988189107 	0 	0.264393467643 	0 	0
0.393700787402 	-0.0678544495944 	-0.084183233011 	0 	0.137744568496 	0 	0 	-0.160549104727 	-0.16075160384 	0 	0.231960293752 	0 	0
0.40157480315 	-0.0563964414394 	-0.084458082123 	0 	0.118679791833 	0 	0 	-0.13430812874 	-0.161902760316 	0 	0.201250410151 	0 	0
0.409448818898 	-0.0440697402791 	-0.0849782325296 	0 	0.101149047684 	0 	0 	-0.10686724579 	-0.163261247372 	0 	0.172102353369 	0 	0
0.417322834646 	-0.0309497210996 	-0.0856118680542 	0 	0.0849505389028 	0 	0 	-0.0784622909143 	-0.16460289954 	0 	0.144371752612 	0 	0
0.425196850394 	-0.017121279999 	-0.0862521500966 	0 	0.0699181828701 	0 	0 	-0.0493411918891 	-0.165748837272 	0 	0.117938327244 	0 	0
0.433070866142 	-0.00261139242947 	-0.0867982958039 	0 	0.0559070266115 	0 	0 	-0.0196099146981 	-0.166521990836 	0 	0.0926932862034 	0 	0
0.44094488189 	0.0126060043056 	-0.0872035010543 	0 	0.0428035358233 	0 	0 	0.0107222484226 	-0.166841964152 	0 	0.0685508553827 	0 	0
0.448818897638 	0.0285773905576 	-0.0875018004006 	0 	0.0305073802712 	0 	0 	0.0416592434346 	-0.166784367268 	0 	0.0454059230315 	0 	0
0.456692913386 	0.0452847275118 	-0.0874168242105 	0 	0.0188593048128 	0 	0 	0.0731650269995 	-0.165847759583 	0 	0.023111239722 	0 	0
0.464566929134 	0.0627055241914 	-0.0868491166917 	0 	0.00779016901904 	0 	0 	0.105150676705 	-0.163867801166 	0 	0.00162750605135 	0 	0
0.472440944882 	0.0808219799117 	-0.0858762666613 	0 	-0.00272191926937 	0 	0 	0.137487918336 	-0.161022515237 	0 	-0.0190600956525 	0 	0
0.48031496063 	0.0996124165547 	-0.084366693003 	0 	-0.0127437955286 	0 	0 	0.170105378501 	-0.157098366443 	0 	-0.0390029580854 	0 	0
0.488188976378 	0.119119521184 	-0.0822774663879 	0 	-0.0223062634888 	0 	0 	0.203014729062 	-0.152046042332 	0 	-0.0582176181316 	0 	0
0.496062992126 	0.13963697829 	-0.0795529469766 	0 	-0.0314329109288 	0 	0 	0.236615728263 	-0.145771361565 	0 	-0.0767079614003 	0 	0
0.503937007874 	0.161255719392 	-0.0761155532821 	0 	-0.0401233493773 	0 	0 	0.27095538468 	-0.138172904134 	0 	-0.0944336678683 	0 	0
0.511811023622 	0.18380404095 	-0.0718688330512 	0 	-0.0484080966694 	0 	0 	0.305662266467 	-0.129158728411 	0 	-0.111433060634 	0 	0
0.51968503937 	0.207091024757 	-0.066725341512 	0 	-0.0564038348119 	0 	0 	0.340376052622 	-0.118665958185 	0 	-0.127960290905 	0 	0
0.527559055118 	0.230992626841 	-0.0605978857965 	0 	-0.0641298238684 	0 	0 	0.374855009322 	-0.106616861943 	0 	-0.144070800219 	0 	0
0.535433070866 	0.25566368044 	-0.0534080874975 	0 	-0.071319793417 	0 	0 	0.409251324932 	-0.0929100048683 	0 	-0.159169785107 	0 	0
0.543307086614 	0.281141169281 	-0.0450587052645 	0 	-0.0778705340716 	0 	0 	0.443537954298 	-0.0774539611694 	0 	-0.173040486395 	0 	0
0.551181102362 	0.30746836556 	-0.0354636849788 	0 	-0.0839379744419 	0 	0 	0.477673635144 	-0.0602124645786 	0 	-0.186097718751 	0 	0
0.55905511811 	0.334789632585 	-0.0245584170201 	0 	-0.0895278306678 	0 	0 	0.511732501842 	-0.041176795877 	0 	-0.19843609528 	0 	0
0.566929133858 	0.363199576353 	-0.0122625971771 	0 	-0.0945345903254 	0 	0 	0.545704348899 	-0.0203216636979 	0 	-0.209901905517 	0 	0
0.574803149606 	0.392685843633 	0.00152683360258 	0 	-0.0988585421553 	0 	0 	0.579446054963 	0.00239982432205 	0 	-0.220372186001 	0 	0
0.582677165354 	0.423228127007 	0.0169280435378 	0 	-0.102404918441 	0 	0 	0.612799508428 	0.0270436806202 	0 	-0.22976024168 	0 	0
0.590551181102 	0.45485257293 	0.0340645221364 	0 	-0.105070039842 	0 	0 	0.645658221974 	0.0536612116184 	0 	-0.237987993331 	0 	0
0.59842519685 	0.487596409395 	0.0530699804382 	0 	-0.106739010456 	0 	0 	0.677914917717 	0.0823021702384 	0 	-0.244984874881 	0 	0
0.606299212598 	0.521511388898 	0.0740942384657 	0 	-0.107275562534 	0 	0 	0.709468184919 	0.113023883102 	0 	-0.250668682369 	0 	0
0.614173228346 	0.556621711273 	0.0973116188311 	0 	-0.10646549173 	0 	0 	0.740173113583 	0.145891600908 	0 	-0.254808872274 	0 	0
0.622047244094 	0.592998423485 	0.122909515363 	0 	-0.10408959579 	0 	0 	0.769917781947 	0.180962590846 	0 	-0.257220193364 	0 	0
0.629921259843 	0.63067798432 	0.151065668493 	0 	-0.100055147647 	0 	0 	0.798544017795 	0.218288815083 	0 	-0.258103517607 	0 	0
0.637795275591 	0.669708659914 	0.182018088024 	0 	-0.0939662725778 	0 	0 	0.825885792638 	0.25791885627 	0 	-0.256969770668 	0 	0
0.645669291339 	0.710117020881 	0.216017921414 	0 	-0.0853810542106 	0 	0 	0.851746694694 	0.299880993949 	0 	-0.253302011588 	0 	0
0.653543307087 	0.751908815483 	0.253303317705 	0 	-0.0739922766061 	0 	0 	0.875903754406 	0.344181018064 	0 	-0.247029544016 	0 	0
0.661417322835 	0.795093277964 	0.294151623294 	0 	-0.0593010047032 	0 	0 	0.898129508038 	0.390797820024 	0 	-0.23771963338 	0 	0
0.669291338583 	0.83964630061 	0.338837678703 	0 	-0.0407775554313 	0 	0 	0.918170963203 	0.439664465638 	0 	-0.224993563665 	0 	0
0.677165354331 	0.885533225594 	0.387636215725 	0 	-0.0178287458332 	0 	0 	0.935777278424 	0.49065986108 	0 	-0.208457643799 	0 	0
0.685039370079 	0.932774408517 	0.44084203991 	0 	0.0102143448772 	0 	0 	0.95074989418 	0.543615139022 	0 	-0.187703167114 	0 	0
0.692913385827 	0.981492977054 	0.498801223313 	0 	0.0441082723553 	0 	0 	0.962968403159 	0.598335312433 	0 	-0.162328754449 	0 	0
0.700787401575 	1.03073761999 	0.561645517771 	0 	0.0846522044532 	0 	0 	0.971593873875 	0.6546005142 	0 	-0.131967698647 	0 	0
0.708661417323 	1.07973692096 	0.62947287465 	0 	0.132697540777 	0 	0 	0.975994498986 	0.712103978108 	0 	-0.0963001817266 	0 	0
0.716535433071 	1.13010350923 	0.702885569137 	0 	0.189245938979 	0 	0 	0.977206936962 	0.770418481159 	0 	-0.0550499360368 	0 	0
0.724409448819 	1.18193658566 	0.78216050813 	0 	0.255333453975 	0 	0 	0.975282537673 	0.829087422783 	0 	-0.00796988211248 	0 	0
0.732283464567 	1.23317729421 	0.866998918263 	0 	0.331983252522 	0 	0 	0.968940147969 	0.887662273599 	0 	0.0451607374165 	0 	0
0.740157480315 	1.28373531583 	0.957631916131 	0 	0.420460255541 	0 	0 	0.958223651852 	0.945704458375 	0 	0.104527430942 	0 	0
0.748031496063 	1.33342219195 	1.05420269479 	0 	0.522128193636 	0 	0 	0.943207570795 	1.00272039954 	0 	0.170296129471 	0 	0
0.755905511811 	1.38116618102 	1.15647206811 	0 	0.638349155922 	0 	0 	0.923546517731 	1.05812411032 	0 	0.242593041568 	0 	0
0.763779527559 	1.42646507343 	1.26428104105 	0 	0.770582610941 	0 	0 	0.899357587789 	1.11129566486 	0 	0.321461198784 	0 	0
0.771653543307 	1.46846034155 	1.37720154836 	0 	0.920273555559 	0 	0 	0.87068052283 	1.1615634507 	0 	0.406872655648 	0 	0
0.779527559055 	1.50610183846 	1.49457657826 	0 	1.08886479669 	0 	0 	0.837572303185 	1.20822669095 	0 	0.498742125618 	0 	0
0.787401574803 	1.53833129981 	1.61559096545 	0 	1.27779472066 	0 	0 	0.800175968572 	1.25061140704 	0 	0.596884162037 	0 	0
0.795275590551 	1.56391066066 	1.73903479634 	0 	1.48821372786 	0 	0 	0.758682472877 	1.28802272965 	0 	0.700927379957 	0 	0
0.803149606299 	1.58155012972 	1.8633404013 	0 	1.72092012954 	0 	0 	0.713367349836 	1.31978522166 	0 	0.810318908134 	0 	0
0.811023622047 	1.59017933878 	1.98673185437 	0 	1.97630318242 	0 	0 	0.664665139688 	1.34532679712 	0 	0.924304392758 	0 	0
0.818897637795 	1.58880106923 	2.10699295936 	0 	2.25392439897 	0 	0 	0.613146314271 	1.36411963306 	0 	1.04188836827 	0 	0
0.826771653543 	1.57621112084 	2.22100856898 	0 	2.5517096547 	0 	0 	0.559505868266 	1.37556623642 	0 	1.16178011149 	0 	0
0.834645669291 	1.55217594403 	2.32623638348 	0 	2.86713962598 	0 	0 	0.504540312467 	1.37956847419 	0 	1.28248218146 	0 	0
0.842519685039 	1.51642128138 	2.41961495038 	0 	3.19613249081 	0 	0 	0.449029034384 	1.37606155924 	0 	1.40244387658 	0 	0
0.850393700787 	1.46853004756 	2.49738119684 	0 	3.53239546917 	0 	0 	0.393725866902 	1.36495314645 	0 	1.51996068948 	0 	0
0.858267716535 	1.40907131712 	2.556563752 	0 	3.8686722414 	0 	0 	0.339379078768 	1.34660911915 	0 	1.63325436248 	0 	0
0.866141732283 	1.33828025755 	2.59372727578 	0 	4.19598858419 	0 	0 	0.286512615025 	1.32125743685 	0 	1.74073905859 	0 	0
0.874015748031 	1.25636242347 	2.60579462254 	0 	4.50545656357 	0 	0 	0.235291205576 	1.28909197749 	0 	1.84129803396 	0 	0
0.88188976378 	1.16387276847 	2.59044514055 	0 	4.78892173325 	0 	0 	0.185724841177 	1.25027171362 	0 	1.93421617658 	0 	0
0.889763779528 	1.06153700917 	2.54556010624 	0 	5.03805626074 	0 	0 	0.137874508914 	1.20472693867 	0 	2.01891778045 	0 	0
0.897637795276 	0.950360314818 	2.46905510124 	0 	5.24296091042 	0 	0 	0.0918905399226 	1.15226435339 	0 	2.09453809434 	0 	0
0.905511811024 	0.832470265921 	2.35959358566 	0 	5.3909406339 	0 	0 	0.0485937776234 	1.09280469665 	0 	2.15948053308 	0 	0
0.913385826772 	0.709957042082 	2.21392950361 	0 	5.45729118533 	0 	0 	0.00911687493672 	1.02620087229 	0 	2.20989420581 	0 	0
0.92125984252 	0.587149906805 	2.03342832981 	0 	5.4171277856 	0 	0 	-0.0253447060921 	0.953694525859 	0 	2.24091666832 	0 	0
0.929133858268 	0.461718808024 	1.80267212182 	0 	5.19158822163 	0 	0 	-0.055618299868 	0.873233669564 	0 	2.23832360925 	0 	0
0.937007874016 	0.341065943087 	1.54053552824 	0 	4.80744274045 	0 	0 	-0.0819558126449 	0.786966477772 	0 	2.20293395606 	0 	0
0.944881889764 	0.254534022072 	1.34371518756 	0 	4.56514218004 	0 	0 	-0.0989436670576 	0.711762352729 	0 	2.18495954357 	0 	0
0.952755905512 	0.178361418769 	1.12299422378 	0 	4.08386644684 	0 	0 	-0.109707417236 	0.635276008365 	0 	2.10476913797 	0 	0
0.96062992126 	0.0936728482975 	0.779429534464 	0 	2.66078228331 	0 	0 	-0.127761167701 	0.570114129627 	0 	1.70069149836 	0 	0
0.968503937008 	0.0552896219443 	0.579487386053 	0 	1.38954422489 	0 	0 	-0.170921258705 	0.607678479867 	0 	1.19712124217 	0 	0
0.976377952756 	0.0668551654666 	0.668070537413 	0 	1.41752563478 	0 	0 	-0.24754570118 	0.707634830716 	0 	1.17253377997 	0 	0
0.984251968504 	0.0692547810857 	0.847886971538 	0 	2.28347756006 	0 	0 	-0.331824092919 	0.732411622033 	0 	1.54560668244 	0 	0
0.992125984252 	0.0432625066248 	0.937858329939 	0 	3.0591504201 	0 	0 	-0.399898745719 	0.696467836673 	0 	1.83381049741 	0 	0
1 	0.00780166203871 	0.954389792813 	0 	3.52290276905 	0 	0 	-0.429593854895 	0.677446110187 	0 	1.90869638218 	0 	0
