0 	0 	0 	0
0.00787401574803 	-0.00406354485711 	-3.50492176374e-07 	0
0.0157480314961 	-0.00799861595495 	-1.15610533282e-06 	0
0.0236220472441 	-0.011835554558 	-3.75580212744e-06 	0
0.0314960629921 	-0.0155950680901 	-6.44828682085e-06 	0
0.0393700787402 	-0.0192424688017 	-9.54519012004e-06 	0
0.0472440944882 	-0.0227765941612 	-1.30864436797e-05 	0
0.0551181102362 	-0.0262042921445 	-1.70971123546e-05 	0
0.0629921259843 	-0.029533302088 	-2.15802979994e-05 	0
0.0708661417323 	-0.0327710585106 	-2.65387719268e-05 	0
0.0787401574803 	-0.0359245627077 	-3.19787290193e-05 	0
0.0866141732283 	-0.0390003924196 	-3.79081250742e-05 	0
0.0944881889764 	-0.0420047210012 	-4.4338205826e-05 	0
0.102362204724 	-0.0449433417416 	-5.12819650632e-05 	0
0.110236220472 	-0.0478216920298 	-5.87540605588e-05 	0
0.11811023622 	-0.0506448660348 	-6.67722359046e-05 	0
0.125984251969 	-0.0534176267151 	-7.53553077797e-05 	0
0.133858267717 	-0.0561444220128 	-8.45240989e-05 	0
0.141732283465 	-0.0588294008795 	-9.43012330149e-05 	0
0.149606299213 	-0.0614764260641 	-0.000104710863077 	0
0.157480314961 	-0.0640890841627 	-0.000115779462403 	0
0.165354330709 	-0.0666706954143 	-0.000127535562718 	0
0.173228346457 	-0.0692243226699 	-0.000140009661547 	0
0.181102362205 	-0.0717527793428 	-0.000153234214426 	0
0.188976377953 	-0.0742586364092 	-0.000167243625697 	0
0.196850393701 	-0.0767442285112 	-0.000182074238606 	0
0.204724409449 	-0.0792116591809 	-0.000197764336937 	0
0.212598425197 	-0.0816628052159 	-0.000214354129605 	0
0.220472440945 	-0.0840993202718 	-0.000231885826127 	0
0.228346456693 	-0.0865226377309 	-0.000250403787236 	0
0.236220472441 	-0.0889339727707 	-0.000269954656417 	0
0.244094488189 	-0.0913343235951 	-0.000290587533196 	0
0.251968503937 	-0.0937244720016 	-0.000312354246444 	0
0.259842519685 	-0.096104983506 	-0.000335308934496 	0
0.267716535433 	-0.098476206836 	-0.000359507585357 	0
0.275590551181 	-0.100838272769 	-0.000385008172636 	0
0.283464566929 	-0.103191092518 	-0.00041187066436 	0
0.291338582677 	-0.10553435566 	-0.000440157037517 	0
0.299212598425 	-0.107867527686 	-0.000469931178281 	0
0.307086614173 	-0.110189847027 	-0.000501259133375 	0
0.314960629921 	-0.112500321265 	-0.000534209753369 	0
0.322834645669 	-0.114797722725 	-0.000568854683417 	0
0.330708661417 	-0.117080583797 	-0.000605268135068 	0
0.338582677165 	-0.119347192159 	-0.000643526335978 	0
0.346456692913 	-0.121595584916 	-0.000683707694785 	0
0.354330708661 	-0.123823541907 	-0.000725893341319 	0
0.362204724409 	-0.126028581449 	-0.000770164148812 	0
0.370078740157 	-0.12820795549 	-0.000816601435355 	0
0.377952755906 	-0.13035864082 	-0.000865288922072 	0
0.385826771654 	-0.132477332435 	-0.000916311562347 	0
0.393700787402 	-0.134560436322 	-0.000969756862099 	0
0.40157480315 	-0.136604061267 	-0.00102571370021 	0
0.409448818898 	-0.138604011486 	-0.00108427233615 	0
0.417322834646 	-0.14055577744 	-0.00114552561267 	0
0.425196850394 	-0.142454525711 	-0.00120956679092 	0
0.433070866142 	-0.14429509161 	-0.00127648850952 	0
0.44094488189 	-0.146071971359 	-0.00134638290365 	0
0.448818897638 	-0.147779311224 	-0.00141934133912 	0
0.456692913386 	-0.149410897838 	-0.00149545422822 	0
0.464566929134 	-0.150960148106 	-0.00157481104605 	0
0.472440944882 	-0.152420098058 	-0.00165750001778 	0
0.48031496063 	-0.153783388789 	-0.00174360967947 	0
0.488188976378 	-0.155042256015 	-0.00183323752348 	0
0.496062992126 	-0.156188589002 	-0.00192645771946 	0
0.503937007874 	-0.157213928196 	-0.00202329322541 	0
0.511811023622 	-0.158109187783 	-0.00212382535601 	0
0.51968503937 	-0.158864735698 	-0.00222813761462 	0
0.527559055118 	-0.159470682902 	-0.00233625758177 	0
0.535433070866 	-0.159916695215 	-0.00244821926367 	0
0.543307086614 	-0.160191890761 	-0.00256403749162 	0
0.551181102362 	-0.160284894228 	-0.00268371843716 	0
0.55905511811 	-0.160183808088 	-0.00280725343029 	0
0.566929133858 	-0.159876203127 	-0.00293461069704 	0
0.574803149606 	-0.159349100674 	-0.00306573567126 	0
0.582677165354 	-0.15858895102 	-0.00320055141303 	0
0.590551181102 	-0.157581616446 	-0.0033389554555 	0
0.59842519685 	-0.156312359621 	-0.00348081839315 	0
0.606299212598 	-0.154765827784 	-0.00362598098001 	0
0.614173228346 	-0.152926015736 	-0.00377425223504 	0
0.622047244094 	-0.150776225879 	-0.00392540205249 	0
0.629921259843 	-0.148299049335 	-0.00407915646264 	0
0.637795275591 	-0.145476338117 	-0.00423519885229 	0
0.645669291339 	-0.142289168861 	-0.00439313537539 	0
0.653543307087 	-0.138717806558 	-0.00455248504094 	0
0.661417322835 	-0.134741664271 	-0.00471272888675 	0
0.669291338583 	-0.130339319507 	-0.00487331579268 	0
0.677165354331 	-0.125488447956 	-0.00503362293428 	0
0.685039370079 	-0.120165683622 	-0.00519293975669 	0
0.692913385827 	-0.114346575012 	-0.00535046421809 	0
0.700787401575 	-0.10800555888 	-0.00550529984527 	0
0.708661417323 	-0.101115896956 	-0.00565645910332 	0
0.716535433071 	-0.0936495900851 	-0.00580286294415 	0
0.724409448819 	-0.0855772888068 	-0.00594333661347 	0
0.732283464567 	-0.0768681982682 	-0.00607660720782 	0
0.740157480315 	-0.0674899749631 	-0.00620130323432 	0
0.748031496063 	-0.0574086139083 	-0.00631595607831 	0
0.755905511811 	-0.0465883256403 	-0.00641900360151 	0
0.763779527559 	-0.03499140262 	-0.00650879621904 	0
0.771653543307 	-0.0225780745322 	-0.00658360580966 	0
0.779527559055 	-0.00930635210193 	-0.00664163788111 	0
0.787401574803 	0.00486814029007 	-0.00668104764566 	0
0.795275590551 	0.0199923459865 	-0.006699961134 	0
0.803149606299 	0.0361159718258 	-0.0066965013465 	0
0.811023622047 	0.0532916941215 	-0.00666881890572 	0
0.818897637795 	0.0715753769129 	-0.00661512786532 	0
0.826771653543 	0.0910263051186 	-0.00653374741022 	0
0.834645669291 	0.111707431779 	-0.00642314978117 	0
0.842519685039 	0.13368564009 	-0.00628201450932 	0
0.850393700787 	0.157032020811 	-0.00610928878358 	0
0.858267716535 	0.181822166769 	-0.00590425388163 	0
0.866141732283 	0.208136486938 	-0.00566659712941 	0
0.874015748031 	0.23606054156 	-0.00539648718474 	0
0.88188976378 	0.265685405764 	-0.00509464710738 	0
0.889763779528 	0.297108097008 	-0.00476244137937 	0
0.897637795276 	0.330432043286 	-0.00440200450031 	0
0.905511811024 	0.365767535453 	-0.0040163605258 	0
0.913385826772 	0.403232281557 	-0.00360931841808 	0
0.92125984252 	0.442952013374 	-0.00318570397002 	0
0.929133858268 	0.485061422384 	-0.00275177521732 	0
0.937007874016 	0.529705303158 	-0.00231497940538 	0
0.944881889764 	0.577039205016 	-0.0018837526424 	0
0.952755905512 	0.62723185652 	-0.00146759450068 	0
0.96062992126 	0.680466291737 	-0.00107827844371 	0
0.968503937008 	0.736948240422 	-0.000729085783709 	0
0.976377952756 	0.796900677674 	-0.000428681290353 	0
0.984251968504 	0.86057500967 	-0.000133504021606 	0
0.992125984252 	0.928378493022 	-7.56083189842e-05 	0
1 	0.999660710222 	0 	0
1 	0.999660710222 	0 	0
