0 	0 	0 	0
0.00787401574803 	-0.00029379611135 	0.0241982195485 	0
0.0157480314961 	-0.000960558289049 	0.0461888594566 	0
0.0236220472441 	-0.00205749827545 	0.0666306574285 	0
0.0314960629921 	-0.00351039555202 	0.0855730274679 	0
0.0393700787402 	-0.00526160847435 	0.103032990258 	0
0.0472440944882 	-0.00725978575051 	0.11905513398 	0
0.0551181102362 	-0.00945870334856 	0.133683838797 	0
0.0629921259843 	-0.0118153404399 	0.146963220613 	0
0.0708661417323 	-0.0142897321244 	0.158937776817 	0
0.0787401574803 	-0.0168456793299 	0.169652483387 	0
0.0866141732283 	-0.0194511508196 	0.179153264437 	0
0.0944881889764 	-0.0220784402195 	0.187488360918 	0
0.102362204724 	-0.0247028493909 	0.19470451865 	0
0.110236220472 	-0.0273025590465 	0.200846518343 	0
0.11811023622 	-0.0298596240982 	0.205961941905 	0
0.125984251969 	-0.0323597795656 	0.210099845474 	0
0.133858267717 	-0.0347909067167 	0.213303654974 	0
0.141732283465 	-0.0371428948915 	0.215612389956 	0
0.149606299213 	-0.0394087447843 	0.217070412461 	0
0.157480314961 	-0.0415841434953 	0.217723981839 	0
0.165354330709 	-0.0436662421938 	0.217614923551 	0
0.173228346457 	-0.0456533494815 	0.216782318743 	0
0.181102362205 	-0.0475451809519 	0.215265362518 	0
0.188976377953 	-0.0493427837868 	0.21310428831 	0
0.196850393701 	-0.0510481566427 	0.210335980794 	0
0.204724409449 	-0.0526642679765 	0.206997807278 	0
0.212598425197 	-0.0541950443809 	0.203127934563 	0
0.220472440945 	-0.0556449588999 	0.198760976827 	0
0.228346456693 	-0.0570184726539 	0.193932418724 	0
0.236220472441 	-0.0583204507254 	0.188676853339 	0
0.244094488189 	-0.0595562628451 	0.183027096697 	0
0.251968503937 	-0.0607305692412 	0.177015164931 	0
0.259842519685 	-0.0618476102382 	0.170672075373 	0
0.267716535433 	-0.0629118083252 	0.164027855958 	0
0.275590551181 	-0.0639270972273 	0.15711127644 	0
0.283464566929 	-0.064896704179 	0.149949631509 	0
0.291338582677 	-0.0658236477177 	0.142569190331 	0
0.299212598425 	-0.0667109401532 	0.134995543357 	0
0.307086614173 	-0.0675609992145 	0.127253071944 	0
0.314960629921 	-0.0683753499744 	0.119364537106 	0
0.322834645669 	-0.0691551551999 	0.111351454068 	0
0.330708661417 	-0.0699013565506 	0.103234362408 	0
0.338582677165 	-0.0706144448438 	0.0950327281851 	0
0.346456692913 	-0.0712946143827 	0.0867647711261 	0
0.354330708661 	-0.0719415712239 	0.0784473984853 	0
0.362204724409 	-0.0725543574044 	0.0700965915152 	0
0.370078740157 	-0.0731320023328 	0.061727832247 	0
0.377952755906 	-0.073673578501 	0.0533557916793 	0
0.385826771654 	-0.0741779618879 	0.0449943939017 	0
0.393700787402 	-0.0746435820292 	0.0366568612271 	0
0.40157480315 	-0.0750683688586 	0.0283554486023 	0
0.409448818898 	-0.0754501451604 	0.0201019555252 	0
0.417322834646 	-0.0757867199628 	0.0119078512682 	0
0.425196850394 	-0.0760758999278 	0.0037841697296 	0
0.433070866142 	-0.076315125519 	-0.00425851488279 	0
0.44094488189 	-0.0765016805105 	-0.0122100915376 	0
0.448818897638 	-0.0766329504619 	-0.020060411101 	0
0.456692913386 	-0.0767062793226 	-0.0277994742455 	0
0.464566929134 	-0.0767187335665 	-0.0354177962185 	0
0.472440944882 	-0.0766672190612 	-0.0429057328199 	0
0.48031496063 	-0.0765489712033 	-0.050253657947 	0
0.488188976378 	-0.0763616060951 	-0.0574521156293 	0
0.496062992126 	-0.0761026159434 	-0.0644914567431 	0
0.503937007874 	-0.0757695547348 	-0.0713620811762 	0
0.511811023622 	-0.0753600151605 	-0.0780544794926 	0
0.51968503937 	-0.0748708262515 	-0.0845594890107 	0
0.527559055118 	-0.0742993384637 	-0.0908676530656 	0
0.535433070866 	-0.0736431928728 	-0.0969689024807 	0
0.543307086614 	-0.0728993546942 	-0.102852631944 	0
0.551181102362 	-0.0720653279729 	-0.10850835846 	0
0.55905511811 	-0.0711395799297 	-0.113926438728 	0
0.566929133858 	-0.0701210706488 	-0.119097230358 	0
0.574803149606 	-0.0690086737453 	-0.124010757422 	0
0.582677165354 	-0.0678012090737 	-0.128656823601 	0
0.590551181102 	-0.066497829599 	-0.133025251755 	0
0.59842519685 	-0.0650981102493 	-0.137105981587 	0
0.606299212598 	-0.0636020447083 	-0.140889120728 	0
0.614173228346 	-0.0620102390086 	-0.144365204162 	0
0.622047244094 	-0.0603239543854 	-0.147525013044 	0
0.629921259843 	-0.0585448918379 	-0.150359323834 	0
0.637795275591 	-0.056675315198 	-0.152859865404 	0
0.645669291339 	-0.054718232785 	-0.15501910794 	0
0.653543307087 	-0.0526774853268 	-0.156829927233 	0
0.661417322835 	-0.0505578571086 	-0.158286316944 	0
0.669291338583 	-0.0483650161825 	-0.159383333188 	0
0.677165354331 	-0.046105192048 	-0.160117204563 	0
0.685039370079 	-0.0437852794843 	-0.160485994181 	0
0.692913385827 	-0.0414155131755 	-0.16049033625 	0
0.700787401575 	-0.0390074300026 	-0.1601310439 	0
0.708661417323 	-0.0365671603907 	-0.159406555219 	0
0.716535433071 	-0.0341035893842 	-0.158319984157 	0
0.724409448819 	-0.0316348979553 	-0.156884133939 	0
0.732283464567 	-0.029176850505 	-0.155112470846 	0
0.740157480315 	-0.0267409536068 	-0.153015653784 	0
0.748031496063 	-0.0243432359671 	-0.150608471985 	0
0.755905511811 	-0.0220015204046 	-0.147910325181 	0
0.763779527559 	-0.0197321387736 	-0.144943157289 	0
0.771653543307 	-0.0175527500058 	-0.141732603145 	0
0.779527559055 	-0.0154820187177 	-0.13830763568 	0
0.787401574803 	-0.0135365561168 	-0.134700305895 	0
0.795275590551 	-0.0117317670667 	-0.130945268744 	0
0.803149606299 	-0.0100829928191 	-0.127080479408 	0
0.811023622047 	-0.0086024351126 	-0.123146067467 	0
0.818897637795 	-0.00729968248137 	-0.119183035475 	0
0.826771653543 	-0.00617920537586 	-0.115230275153 	0
0.834645669291 	-0.00524081148287 	-0.111324965607 	0
0.842519685039 	-0.00448221739304 	-0.10750516167 	0
0.850393700787 	-0.00389625355131 	-0.103802578415 	0
0.858267716535 	-0.00346816902326 	-0.100233987978 	0
0.866141732283 	-0.00317694184413 	-0.0968013921509 	0
0.874015748031 	-0.00299742757042 	-0.093493252395 	0
0.88188976378 	-0.00289992646441 	-0.0902834567289 	0
0.889763779528 	-0.00285279084997 	-0.0871357795297 	0
0.897637795276 	-0.00282508246914 	-0.084005923076 	0
0.905511811024 	-0.00277962060054 	-0.0808220745947 	0
0.913385826772 	-0.0026861188738 	-0.0774885693188 	0
0.92125984252 	-0.00255065288826 	-0.0739384384817 	0
0.929133858268 	-0.00239477185749 	-0.0701060871743 	0
0.937007874016 	-0.00222977890396 	-0.0658962260852 	0
0.944881889764 	-0.00204439848618 	-0.0611770325209 	0
0.952755905512 	-0.00182859453017 	-0.0558191322192 	0
0.96062992126 	-0.00166908380511 	-0.049973643795 	0
0.968503937008 	-0.00157707015548 	-0.0436688814175 	0
0.976377952756 	-0.00127848601671 	-0.0359706548558 	0
0.984251968504 	-0.000938116797958 	-0.0258415107789 	0
0.992125984252 	-0.000196863445046 	-0.0131884952071 	0
1 	0 	0 	0
