0 	0.152036119887 	-0.194722046613 	0 	-7.42209424961e-05 	0 	0 	0.203247381595 	-0.348464998834 	0 	-0.0661453818989 	0 	0
0.00787401574803 	0.142164696605 	-0.187211955572 	0 	-0.000992991604092 	0 	0 	0.197199938898 	-0.34268321246 	0 	-0.0648345376602 	0 	0
0.0157480314961 	0.133018899897 	-0.180016955728 	0 	-0.00209423740081 	0 	0 	0.185996126307 	-0.331539954176 	0 	-0.0628384357446 	0 	0
0.0236220472441 	0.125293810336 	-0.173465411369 	0 	-0.00337459161699 	0 	0 	0.176578265955 	-0.321226663724 	0 	-0.0616897649467 	0 	0
0.0314960629921 	0.118819849186 	-0.167528079298 	0 	-0.00469252211441 	0 	0 	0.168763934928 	-0.311710161439 	0 	-0.0610478357253 	0 	0
0.0393700787402 	0.11346337219 	-0.162175501775 	0 	-0.00607926413149 	0 	0 	0.162403786912 	-0.303004108478 	0 	-0.060946901051 	0 	0
0.0472440944882 	0.10918146002 	-0.157412604025 	0 	-0.00751532052731 	0 	0 	0.157474149384 	-0.295143812056 	0 	-0.0613302550266 	0 	0
0.0551181102362 	0.105884461729 	-0.15322322751 	0 	-0.00898549090553 	0 	0 	0.153872226766 	-0.288134740628 	0 	-0.0621415416981 	0 	0
0.0629921259843 	0.103500884712 	-0.149595479135 	0 	-0.0104742157909 	0 	0 	0.151514201566 	-0.281982858861 	0 	-0.0633274254418 	0 	0
0.0708661417323 	0.101958107603 	-0.146513767809 	0 	-0.0119679152928 	0 	0 	0.150307430581 	-0.276684849108 	0 	-0.064838789537 	0 	0
0.0787401574803 	0.101192754561 	-0.14396194828 	0 	-0.0134537298617 	0 	0 	0.150168082832 	-0.27223145748 	0 	-0.066629458169 	0 	0
0.0866141732283 	0.101150957306 	-0.141923207675 	0 	-0.0149202941949 	0 	0 	0.1510227157 	-0.268607640282 	0 	-0.0686577783286 	0 	0
0.0944881889764 	0.101779579938 	-0.140378746486 	0 	-0.0163576058594 	0 	0 	0.152794616894 	-0.265792341213 	0 	-0.0708859756637 	0 	0
0.102362204724 	0.103030003224 	-0.13930618986 	0 	-0.0177570345938 	0 	0 	0.155412017516 	-0.263754599918 	0 	-0.0732790389954 	0 	0
0.110236220472 	0.104868515295 	-0.138699562019 	0 	-0.0191073001458 	0 	0 	0.158817552446 	-0.262489838858 	0 	-0.0758063380656 	0 	0
0.11811023622 	0.107267994903 	-0.138544418127 	0 	-0.020401515243 	0 	0 	0.162965860749 	-0.261974715766 	0 	-0.0784434971702 	0 	0
0.125984251969 	0.110189358556 	-0.138799853009 	0 	-0.0216412487755 	0 	0 	0.167800401738 	-0.262137245548 	0 	-0.0811721170696 	0 	0
0.133858267717 	0.113615316774 	-0.139458991368 	0 	-0.0228196401412 	0 	0 	0.173284225983 	-0.26296413952 	0 	-0.0839744671422 	0 	0
0.141732283465 	0.11754058361 	-0.140520401531 	0 	-0.0239276607868 	0 	0 	0.179396481873 	-0.264448351617 	0 	-0.0868316452655 	0 	0
0.149606299213 	0.121951508312 	-0.141963221081 	0 	-0.0249620046572 	0 	0 	0.186108960271 	-0.266546955554 	0 	-0.0897279305509 	0 	0
0.157480314961 	0.126843849448 	-0.143776025411 	0 	-0.0259186408054 	0 	0 	0.193403418696 	-0.269232381689 	0 	-0.0926516334994 	0 	0
0.165354330709 	0.132218294664 	-0.145948886868 	0 	-0.0267939728627 	0 	0 	0.201267587342 	-0.272478137218 	0 	-0.0955933377339 	0 	0
0.173228346457 	0.138077904263 	-0.148472408033 	0 	-0.0275844422943 	0 	0 	0.20969135642 	-0.276257436681 	0 	-0.098544472847 	0 	0
0.181102362205 	0.144427503381 	-0.15133789338 	0 	-0.0282867350628 	0 	0 	0.218665745245 	-0.280543792858 	0 	-0.101497776658 	0 	0
0.188976377953 	0.151272435716 	-0.154536991152 	0 	-0.0288979458705 	0 	0 	0.228181115773 	-0.2853107201 	0 	-0.104447405537 	0 	0
0.196850393701 	0.158616756084 	-0.158061140134 	0 	-0.029415717898 	0 	0 	0.238224686783 	-0.290531221717 	0 	-0.107388903317 	0 	0
0.204724409449 	0.166460917683 	-0.161900813153 	0 	-0.029838468969 	0 	0 	0.24877752209 	-0.296177090732 	0 	-0.110319258904 	0 	0
0.212598425197 	0.174798700764 	-0.166044473026 	0 	-0.0301657111066 	0 	0 	0.259810732565 	-0.302217961006 	0 	-0.1132370173 	0 	0
0.220472440945 	0.183613023873 	-0.170477118325 	0 	-0.0303985211317 	0 	0 	0.271280512806 	-0.308620022162 	0 	-0.116142502589 	0 	0
0.228346456693 	0.192870681843 	-0.17517843241 	0 	-0.0305401675757 	0 	0 	0.28312224092 	-0.315344472468 	0 	-0.119038151576 	0 	0
0.236220472441 	0.202515885297 	-0.180120483744 	0 	-0.0305969192619 	0 	0 	0.29524362417 	-0.32234570379 	0 	-0.121928972565 	0 	0
0.244094488189 	0.212461216225 	-0.185264686935 	0 	-0.0305791119391 	0 	0 	0.307515104691 	-0.329569111189 	0 	-0.124823175283 	0 	0
0.251968503937 	0.222573393465 	-0.190556957319 	0 	-0.0305028660496 	0 	0 	0.319754450977 	-0.33694741811 	0 	-0.127733277168 	0 	0
0.259842519685 	0.232655120414 	-0.195920839802 	0 	-0.0303925925402 	0 	0 	0.331707915717 	-0.344394968017 	0 	-0.130677699566 	0 	0
0.267716535433 	0.242435119899 	-0.201252033321 	0 	-0.0302831690748 	0 	0 	0.343043645678 	-0.351802782298 	0 	-0.133681848914 	0 	0
0.275590551181 	0.251599360987 	-0.206424796837 	0 	-0.0302186649928 	0 	0 	0.35339723031 	-0.35904330131 	0 	-0.136776938564 	0 	0
0.283464566929 	0.259911451731 	-0.211327824744 	0 	-0.0302418027711 	0 	0 	0.36252334666 	-0.366000529924 	0 	-0.139993263216 	0 	0
0.291338582677 	0.26739399432 	-0.215923726989 	0 	-0.0303750533558 	0 	0 	0.37051081389 	-0.372620281833 	0 	-0.143348538388 	0 	0
0.299212598425 	0.274420854156 	-0.220280643569 	0 	-0.0306102937012 	0 	0 	0.377878427159 	-0.378932783691 	0 	-0.1468427622 	0 	0
0.307086614173 	0.281738742284 	-0.224577130149 	0 	-0.0309072297446 	0 	0 	0.385584436671 	-0.385047852361 	0 	-0.150458488514 	0 	0
0.314960629921 	0.290783168989 	-0.229205085051 	0 	-0.0311585417733 	0 	0 	0.395381980471 	-0.391234165438 	0 	-0.15413759529 	0 	0
0.322834645669 	0.304373743684 	-0.235015131258 	0 	-0.0311066547503 	0 	0 	0.410554351574 	-0.398122982272 	0 	-0.157731292849 	0 	0
0.330708661417 	0.326861192862 	-0.2434156392 	0 	-0.0303059861227 	0 	0 	0.435804144577 	-0.406786504537 	0 	-0.160992446801 	0 	0
0.338582677165 	0.361681981334 	-0.255632690164 	0 	-0.0283551657665 	0 	0 	0.474038833271 	-0.418119083683 	0 	-0.163738481589 	0 	0
0.346456692913 	0.404580148903 	-0.270541745117 	0 	-0.0255843822178 	0 	0 	0.519267852891 	-0.431240558374 	0 	-0.166235323621 	0 	0
0.354330708661 	0.440232779068 	-0.283542532673 	0 	-0.0233830286883 	0 	0 	0.55502300452 	-0.442976727652 	0 	-0.169234120614 	0 	0
0.362204724409 	0.460824797512 	-0.291847150175 	0 	-0.0226411494652 	0 	0 	0.574466720801 	-0.45127202491 	0 	-0.173088047174 	0 	0
0.370078740157 	0.472473417929 	-0.297156456402 	0 	-0.0228092340659 	0 	0 	0.584808486377 	-0.457278522699 	0 	-0.177353648994 	0 	0
0.377952755906 	0.480923483484 	-0.301445637612 	0 	-0.0232407532376 	0 	0 	0.591910813957 	-0.462542705008 	0 	-0.181684891198 	0 	0
0.385826771654 	0.489887444348 	-0.305739155278 	0 	-0.0237196196705 	0 	0 	0.599503643359 	-0.467668547994 	0 	-0.186122169049 	0 	0
0.393700787402 	0.503093229498 	-0.311190717358 	0 	-0.0239129779838 	0 	0 	0.611117868597 	-0.473385930166 	0 	-0.190553393108 	0 	0
0.40157480315 	0.523559170564 	-0.31896855012 	0 	-0.0233744534678 	0 	0 	0.629287083281 	-0.480562416479 	0 	-0.194695181214 	0 	0
0.409448818898 	0.551109513803 	-0.329234763114 	0 	-0.0219762850395 	0 	0 	0.653366889588 	-0.489385461574 	0 	-0.198437253212 	0 	0
0.417322834646 	0.581654558315 	-0.3407503646 	0 	-0.0200880161546 	0 	0 	0.679294775128 	-0.499052665445 	0 	-0.201956106931 	0 	0
0.425196850394 	0.61052707595 	-0.351953719775 	0 	-0.0182166801571 	0 	0 	0.702935623199 	-0.508528500085 	0 	-0.205491504154 	0 	0
0.433070866142 	0.635990909004 	-0.362224326652 	0 	-0.0165595081177 	0 	0 	0.723005651341 	-0.517413012274 	0 	-0.209101494544 	0 	0
0.44094488189 	0.658712498831 	-0.371773611847 	0 	-0.0150280604448 	0 	0 	0.740271111906 	-0.525856652556 	0 	-0.212693118127 	0 	0
0.448818897638 	0.679435533044 	-0.380876736616 	0 	-0.0135032085901 	0 	0 	0.755468234463 	-0.534061693453 	0 	-0.216157932659 	0 	0
0.456692913386 	0.698156253772 	-0.389563017238 	0 	-0.0119467083627 	0 	0 	0.768679815401 	-0.542077273645 	0 	-0.219427447275 	0 	0
0.464566929134 	0.714606605246 	-0.397750308289 	0 	-0.0103665270359 	0 	0 	0.779778323991 	-0.549870690876 	0 	-0.222463767036 	0 	0
0.472440944882 	0.728639564996 	-0.405382565554 	0 	-0.00877179637097 	0 	0 	0.788731911941 	-0.557418252817 	0 	-0.225243607759 	0 	0
0.48031496063 	0.739909811381 	-0.412350563008 	0 	-0.00718543604785 	0 	0 	0.795342029097 	-0.564679420344 	0 	-0.22774649447 	0 	0
0.488188976378 	0.748089550481 	-0.41853944974 	0 	-0.00561890923853 	0 	0 	0.799422298188 	-0.571593717073 	0 	-0.229911006927 	0 	0
0.496062992126 	0.753576506688 	-0.424003527013 	0 	-0.00404429730305 	0 	0 	0.801360222695 	-0.578129433619 	0 	-0.231659382839 	0 	0
0.503937007874 	0.757176319267 	-0.428851601714 	0 	-0.00248113310007 	0 	0 	0.801869642724 	-0.584238017313 	0 	-0.23303689143 	0 	0
0.511811023622 	0.757750678361 	-0.432740073773 	0 	-0.00101549573083 	0 	0 	0.800088409896 	-0.58977868183 	0 	-0.234025035478 	0 	0
0.51968503937 	0.75441928279 	-0.435439249406 	0 	0.000345642469183 	0 	0 	0.795322874996 	-0.594672459418 	0 	-0.234494221857 	0 	0
0.527559055118 	0.748331992751 	-0.437213313064 	0 	0.00164583791165 	0 	0 	0.788479443421 	-0.598976805049 	0 	-0.234458000037 	0 	0
0.535433070866 	0.739501501382 	-0.438005523297 	0 	0.00283226634589 	0 	0 	0.779560634656 	-0.602635427804 	0 	-0.233974670973 	0 	0
0.543307086614 	0.727569503673 	-0.437610231908 	0 	0.00386096465348 	0 	0 	0.768300029029 	-0.605449406354 	0 	-0.232949544948 	0 	0
0.551181102362 	0.71279374968 	-0.436001570153 	0 	0.00478349042827 	0 	0 	0.754908078247 	-0.607250299132 	0 	-0.231154542473 	0 	0
0.55905511811 	0.69539205346 	-0.433287533424 	0 	0.00566078011713 	0 	0 	0.739453362691 	-0.608108808207 	0 	-0.228526865045 	0 	0
0.566929133858 	0.675647136734 	-0.429653550937 	0 	0.0065216833047 	0 	0 	0.72199967999 	-0.608231452126 	0 	-0.225186500401 	0 	0
0.574803149606 	0.653595981792 	-0.424708654005 	0 	0.00714864996364 	0 	0 	0.702727175344 	-0.607032532981 	0 	-0.221181012276 	0 	0
0.582677165354 	0.629477414089 	-0.418443742485 	0 	0.0075547804299 	0 	0 	0.681788804928 	-0.604378211493 	0 	-0.216423312278 	0 	0
0.590551181102 	0.60369439167 	-0.41111701407 	0 	0.00785205511538 	0 	0 	0.65933179451 	-0.60048207125 	0 	-0.210897628502 	0 	0
0.59842519685 	0.576445472976 	-0.402599181224 	0 	0.00795264718133 	0 	0 	0.635545812891 	-0.595059168928 	0 	-0.20464352592 	0 	0
0.606299212598 	0.548048263648 	-0.392957718976 	0 	0.00787450383872 	0 	0 	0.610629922358 	-0.58806121174 	0 	-0.197670395771 	0 	0
0.614173228346 	0.518790270124 	-0.382208892562 	0 	0.00759810884514 	0 	0 	0.584795437487 	-0.579377411469 	0 	-0.190033306423 	0 	0
0.622047244094 	0.488971406 	-0.370392273374 	0 	0.00711774613799 	0 	0 	0.558268084755 	-0.568922788058 	0 	-0.181790843819 	0 	0
0.629921259843 	0.458888190264 	-0.357547250303 	0 	0.0064242383131 	0 	0 	0.531287559973 	-0.55661402392 	0 	-0.173023144733 	0 	0
0.637795275591 	0.428835979425 	-0.343720242953 	0 	0.00550922230198 	0 	0 	0.504107250494 	-0.542381435353 	0 	-0.163830519174 	0 	0
0.645669291339 	0.399105058154 	-0.328962089388 	0 	0.00436437788072 	0 	0 	0.476992986864 	-0.52616849736 	0 	-0.154333087471 	0 	0
0.653543307087 	0.369979605859 	-0.313328742543 	0 	0.00298193386439 	0 	0 	0.45022226286 	-0.507935871128 	0 	-0.144670382946 	0 	0
0.661417322835 	0.341736840383 	-0.296880867513 	0 	0.00135472886033 	0 	0 	0.424083953328 	-0.487663705183 	0 	-0.135000135257 	0 	0
0.669291338583 	0.314646553331 	-0.279683524503 	0 	-0.00052406340208 	0 	0 	0.398877892009 	-0.465354198006 	0 	-0.12549732614 	0 	0
0.677165354331 	0.288970538193 	-0.261805970928 	0 	-0.00266031749061 	0 	0 	0.37491375436 	-0.441033991899 	0 	-0.1163506608 	0 	0
0.685039370079 	0.264961293968 	-0.24332156137 	0 	-0.00505590878365 	0 	0 	0.352508363878 	-0.414755955022 	0 	-0.107753056134 	0 	0
0.692913385827 	0.242858944867 	-0.224307896531 	0 	-0.00770493652321 	0 	0 	0.331979255746 	-0.386601966623 	0 	-0.0998904713043 	0 	0
0.700787401575 	0.222886383967 	-0.204848083772 	0 	-0.0106018311221 	0 	0 	0.313632880171 	-0.356692687437 	0 	-0.0929576003083 	0 	0
0.708661417323 	0.205245900978 	-0.185027110079 	0 	-0.0138093860699 	0 	0 	0.297753867566 	-0.325204481137 	0 	-0.0873003313816 	0 	0
0.716535433071 	0.190126011972 	-0.16492665895 	0 	-0.0174912506105 	0 	0 	0.284615207846 	-0.292357011811 	0 	-0.0834736272588 	0 	0
0.724409448819 	0.177742588906 	-0.144647866258 	0 	-0.021576864277 	0 	0 	0.274544109776 	-0.258344677735 	0 	-0.0815106961624 	0 	0
0.732283464567 	0.168305910455 	-0.124303971409 	0 	-0.0257027449505 	0 	0 	0.267864873093 	-0.223350209155 	0 	-0.0807951140796 	0 	0
0.740157480315 	0.161618423658 	-0.103960121917 	0 	-0.0299693221576 	0 	0 	0.264264968397 	-0.187685442689 	0 	-0.0816925875357 	0 	0
0.748031496063 	0.157161077759 	-0.0837174282589 	0 	-0.0347842171743 	0 	0 	0.262915245732 	-0.151799051077 	0 	-0.0852211599202 	0 	0
0.755905511811 	0.15573812159 	-0.0637968155569 	0 	-0.0399893394912 	0 	0 	0.265019370486 	-0.116067537206 	0 	-0.0911381677563 	0 	0
0.763779527559 	0.157629484103 	-0.0442792360155 	0 	-0.0454065160953 	0 	0 	0.271004760868 	-0.0806988963248 	0 	-0.0990858724423 	0 	0
0.771653543307 	0.162168026671 	-0.0251886677759 	0 	-0.0511526203766 	0 	0 	0.279838324911 	-0.0459478239967 	0 	-0.10931813886 	0 	0
0.779527559055 	0.169710400796 	-0.00667020830664 	0 	-0.0572155214239 	0 	0 	0.292027644412 	-0.0121728363063 	0 	-0.121792686613 	0 	0
0.787401574803 	0.1803848461 	0.0111797703964 	0 	-0.0635771038485 	0 	0 	0.307722953163 	0.0203359588655 	0 	-0.136415091006 	0 	0
0.795275590551 	0.194196446724 	0.0282433553275 	0 	-0.0702486330595 	0 	0 	0.326867328149 	0.0512401813382 	0 	-0.153121315516 	0 	0
0.803149606299 	0.211288024582 	0.0443770366747 	0 	-0.077235413804 	0 	0 	0.34958871038 	0.0801670787371 	0 	-0.171802288843 	0 	0
0.811023622047 	0.231724548601 	0.0594594871116 	0 	-0.0845463664656 	0 	0 	0.375869970053 	0.106795762479 	0 	-0.192327716492 	0 	0
0.818897637795 	0.255635848148 	0.0733452185176 	0 	-0.0921792835431 	0 	0 	0.40575344599 	0.130775682733 	0 	-0.214513008874 	0 	0
0.826771653543 	0.283211410648 	0.0858552086073 	0 	-0.100132833974 	0 	0 	0.439320265801 	0.151712653892 	0 	-0.238143441883 	0 	0
0.834645669291 	0.314779775161 	0.0967499301589 	0 	-0.108401777664 	0 	0 	0.476779519773 	0.169119327875 	0 	-0.262952787722 	0 	0
0.842519685039 	0.350918847155 	0.105668252776 	0 	-0.117033623829 	0 	0 	0.518573967852 	0.182319622224 	0 	-0.288750683118 	0 	0
0.850393700787 	0.392761976516 	0.112350253204 	0 	-0.126140743912 	0 	0 	0.565591594533 	0.190832009053 	0 	-0.315577033351 	0 	0
0.858267716535 	0.442148979653 	0.117076310487 	0 	-0.135781955025 	0 	0 	0.619055640794 	0.195099084889 	0 	-0.343635195894 	0 	0
0.866141732283 	0.501135838912 	0.120522033793 	0 	-0.145814388487 	0 	0 	0.67986357642 	0.196223138847 	0 	-0.372834785777 	0 	0
0.874015748031 	0.571184865504 	0.121240430931 	0 	-0.156213758564 	0 	0 	0.7483123793 	0.192008700303 	0 	-0.402520856037 	0 	0
0.88188976378 	0.656369763645 	0.119012747641 	0 	-0.167205274019 	0 	0 	0.826229054965 	0.18228822953 	0 	-0.43343818495 	0 	0
0.889763779528 	0.761971610569 	0.114827844498 	0 	-0.178827593141 	0 	0 	0.915274736363 	0.168992801656 	0 	-0.466517313534 	0 	0
0.897637795276 	0.893824783681 	0.108485432862 	0 	-0.190922292179 	0 	0 	1.01636193184 	0.152238507344 	0 	-0.501625300206 	0 	0
0.905511811024 	1.0621046078 	0.0995490952871 	0 	-0.203214315799 	0 	0 	1.13192849728 	0.131958531945 	0 	-0.538234586579 	0 	0
0.913385826772 	1.28234191393 	0.0869703917071 	0 	-0.215462787467 	0 	0 	1.26510828494 	0.107607408816 	0 	-0.575813177542 	0 	0
0.92125984252 	1.57178360446 	0.0715397007293 	0 	-0.227999550356 	0 	0 	1.41648058091 	0.0815729403466 	0 	-0.616559351111 	0 	0
0.929133858268 	1.93281905508 	0.056962869937 	0 	-0.24155626266 	0 	0 	1.57793156809 	0.0593098268308 	0 	-0.664665531705 	0 	0
0.937007874016 	2.35078140274 	0.0466995391422 	0 	-0.256123931389 	0 	0 	1.73721534768 	0.0443684007822 	0 	-0.721103083804 	0 	0
0.944881889764 	2.83795075711 	0.0382705309404 	0 	-0.270814375942 	0 	0 	1.89503275991 	0.0332788501493 	0 	-0.782271522835 	0 	0
0.952755905512 	3.47465659818 	0.0254826380257 	0 	-0.285032671346 	0 	0 	2.06861377836 	0.0202345388176 	0 	-0.845414282702 	0 	0
0.96062992126 	4.39924562099 	0.00539096058653 	0 	-0.298978475737 	0 	0 	2.27576995297 	0.00428609137985 	0 	-0.911962253577 	0 	0
0.968503937008 	5.91693109448 	-0.0249151394741 	0 	-0.312837841026 	0 	0 	2.54063380501 	-0.0132334336336 	0 	-0.983985857296 	0 	0
0.976377952756 	8.8645643319 	-0.0697619058215 	0 	-0.326926723927 	0 	0 	2.90694555358 	-0.0293681974716 	0 	-1.06475880467 	0 	0
0.984251968504 	17.3595671362 	-0.152441290375 	0 	-0.343186206563 	0 	0 	3.50411058596 	-0.0402347224945 	0 	-1.16949608225 	0 	0
0.992125984252 	88.7702065011 	-0.479368335781 	0 	-0.359687846725 	0 	0 	4.80863560096 	-0.0392919158863 	0 	-1.29192998145 	0 	0
1 	218.573607088 	-1.02071380417 	0 	-0.374570188282 	0 	0 	5.73105853222 	-0.0344928358074 	0 	-1.35293314169 	0 	0
1 	218.573607088 	-1.02071380417 	0 	-0.374570188282 	0 	0 	5.73105853222 	-0.0344928358074 	0 	-1.35293314169 	0 	0
