0 	-0.0148462209738 	1.52587320809 	0 	9.70880656723 	0 	0 	-0.614239179948 	0.554947502256 	0 	2.82152454232 	0 	0
0.00787401574803 	-0.0574635940095 	1.21651454391 	0 	7.19911402296 	0 	0 	-0.627880657428 	0.553456927236 	0 	2.65572528951 	0 	0
0.0157480314961 	-0.0983142244572 	0.949531724112 	0 	5.1721526094 	0 	0 	-0.656730932002 	0.543648279078 	0 	2.35315472267 	0 	0
0.0236220472441 	-0.132092022714 	0.757638698666 	0 	3.90683229462 	0 	0 	-0.67962127415 	0.523081141442 	0 	2.10580707876 	0 	0
0.0314960629921 	-0.156870199492 	0.618005506046 	0 	3.07924973733 	0 	0 	-0.688965385104 	0.495261432485 	0 	1.90390406774 	0 	0
0.0393700787402 	-0.175631064085 	0.510794696267 	0 	2.51736390377 	0 	0 	-0.688983773175 	0.46061205784 	0 	1.74079936894 	0 	0
0.0472440944882 	-0.190054992011 	0.425493788234 	0 	2.13398754759 	0 	0 	-0.682939802911 	0.420055139963 	0 	1.61360428621 	0 	0
0.0551181102362 	-0.201053675105 	0.355642469261 	0 	1.86989312971 	0 	0 	-0.673396054092 	0.375718675919 	0 	1.51689911372 	0 	0
0.0629921259843 	-0.209426033579 	0.296943342309 	0 	1.68562504758 	0 	0 	-0.662771029866 	0.329828869471 	0 	1.44445131049 	0 	0
0.0708661417323 	-0.215618569552 	0.246699350233 	0 	1.55449808692 	0 	0 	-0.652143058767 	0.284344068118 	0 	1.39011778601 	0 	0
0.0787401574803 	-0.220048180172 	0.203057965928 	0 	1.45901045294 	0 	0 	-0.642172174735 	0.2405730447 	0 	1.34886935091 	0 	0
0.0866141732283 	-0.223034490319 	0.164635475172 	0 	1.38626358874 	0 	0 	-0.632990477607 	0.199232259718 	0 	1.31612876105 	0 	0
0.0944881889764 	-0.224811368965 	0.13047756705 	0 	1.32871638376 	0 	0 	-0.624429897739 	0.16058899039 	0 	1.28911851614 	0 	0
0.102362204724 	-0.225559797691 	0.0998437804726 	0 	1.28309785818 	0 	0 	-0.616215116018 	0.12452632982 	0 	1.26683570638 	0 	0
0.110236220472 	-0.225424003347 	0.0720025709582 	0 	1.2467278311 	0 	0 	-0.608076153419 	0.0907280533405 	0 	1.24836370938 	0 	0
0.11811023622 	-0.224524633217 	0.0464513333094 	0 	1.21697174933 	0 	0 	-0.599864467396 	0.0589946332056 	0 	1.23259081383 	0 	0
0.125984251969 	-0.222977946534 	0.022924031928 	0 	1.19074098028 	0 	0 	-0.591555782358 	0.029294298826 	0 	1.21798230248 	0 	0
0.133858267717 	-0.220862481267 	0.00112606955086 	0 	1.16998275537 	0 	0 	-0.58305725431 	0.00142471888424 	0 	1.20590622861 	0 	0
0.141732283465 	-0.218180014951 	-0.0196309455952 	0 	1.15947076315 	0 	0 	-0.574110565372 	-0.0252645451243 	0 	1.19941586165 	0 	0
0.149606299213 	-0.214899002685 	-0.040195213193 	0 	1.15793510569 	0 	0 	-0.564521635132 	-0.0515768680401 	0 	1.1978841925 	0 	0
0.157480314961 	-0.211072703815 	-0.0607900998297 	0 	1.16323794469 	0 	0 	-0.554457703826 	-0.0775660223281 	0 	1.20006670565 	0 	0
0.165354330709 	-0.206913420783 	-0.0804879679649 	0 	1.17033549966 	0 	0 	-0.54439917932 	-0.102092929558 	0 	1.20300720441 	0 	0
0.173228346457 	-0.202679111942 	-0.0980649421061 	0 	1.17341990383 	0 	0 	-0.534716530281 	-0.123849628593 	0 	1.20337586236 	0 	0
0.181102362205 	-0.198446939077 	-0.113360125249 	0 	1.16999774046 	0 	0 	-0.525332724113 	-0.142914013579 	0 	1.19978124584 	0 	0
0.188976377953 	-0.194119352902 	-0.127380670745 	0 	1.16431243268 	0 	0 	-0.515973710849 	-0.160416733227 	0 	1.19474622797 	0 	0
0.196850393701 	-0.189713922776 	-0.140592866807 	0 	1.16182293905 	0 	0 	-0.506655530226 	-0.176658602746 	0 	1.19156856347 	0 	0
0.204724409449 	-0.185467478548 	-0.151881078975 	0 	1.15575937243 	0 	0 	-0.497641547449 	-0.190712232218 	0 	1.18631112506 	0 	0
0.212598425197 	-0.18158228209 	-0.160041358116 	0 	1.13791158825 	0 	0 	-0.489006497596 	-0.20175723182 	0 	1.17407432303 	0 	0
0.220472440945 	-0.17806927727 	-0.165240714621 	0 	1.10879370039 	0 	0 	-0.480675061662 	-0.210080553908 	0 	1.15497834588 	0 	0
0.228346456693 	-0.174857169457 	-0.168239703276 	0 	1.0730587276 	0 	0 	-0.472562166266 	-0.216323333701 	0 	1.13156901663 	0 	0
0.236220472441 	-0.17195086286 	-0.168981405369 	0 	1.03172011194 	0 	0 	-0.464549030872 	-0.22030380006 	0 	1.10424021793 	0 	0
0.244094488189 	-0.169336915808 	-0.167470866005 	0 	0.984259635629 	0 	0 	-0.456545468347 	-0.222021062991 	0 	1.07233617911 	0 	0
0.251968503937 	-0.166972519252 	-0.164164168943 	0 	0.93167517053 	0 	0 	-0.448588764207 	-0.22191561971 	0 	1.03607134779 	0 	0
0.259842519685 	-0.164757833853 	-0.159440208635 	0 	0.875734409766 	0 	0 	-0.440512248155 	-0.22023359012 	0 	0.996230239146 	0 	0
0.267716535433 	-0.16255025431 	-0.153738706416 	0 	0.817929111671 	0 	0 	-0.432065220064 	-0.217329569539 	0 	0.953485692696 	0 	0
0.275590551181 	-0.160286427262 	-0.14741942317 	0 	0.759487263434 	0 	0 	-0.423222489665 	-0.213513093708 	0 	0.908435746456 	0 	0
0.283464566929 	-0.157889124492 	-0.140721957451 	0 	0.701378426118 	0 	0 	-0.413865240001 	-0.208962643173 	0 	0.861607192927 	0 	0
0.291338582677 	-0.155237031932 	-0.133831908211 	0 	0.644289730041 	0 	0 	-0.403726741441 	-0.20381473446 	0 	0.813407222187 	0 	0
0.299212598425 	-0.152208885363 	-0.126987817964 	0 	0.588916700227 	0 	0 	-0.392575439603 	-0.198312581176 	0 	0.764340104918 	0 	0
0.307086614173 	-0.148766214732 	-0.120453624243 	0 	0.535995685455 	0 	0 	-0.380442966816 	-0.192788217087 	0 	0.715058343617 	0 	0
0.314960629921 	-0.144885833145 	-0.114414497648 	0 	0.486018779033 	0 	0 	-0.367372821278 	-0.187508867192 	0 	0.666121923376 	0 	0
0.322834645669 	-0.140493302838 	-0.108970228382 	0 	0.439193280001 	0 	0 	-0.353226460208 	-0.182643023827 	0 	0.617919415364 	0 	0
0.330708661417 	-0.135523012555 	-0.10418273443 	0 	0.395606793002 	0 	0 	-0.337885101008 	-0.178323827562 	0 	0.570780677223 	0 	0
0.338582677165 	-0.129934246396 	-0.100063722045 	0 	0.355256868168 	0 	0 	-0.321293185106 	-0.174617768479 	0 	0.524982818092 	0 	0
0.346456692913 	-0.123689793107 	-0.0965822954708 	0 	0.318046144626 	0 	0 	-0.30340187551 	-0.171525301599 	0 	0.480720642954 	0 	0
0.354330708661 	-0.116750744722 	-0.0937856515737 	0 	0.283870663073 	0 	0 	-0.284196319984 	-0.169185966603 	0 	0.438169806803 	0 	0
0.362204724409 	-0.109090980929 	-0.0916970714256 	0 	0.252560665468 	0 	0 	-0.263695520782 	-0.167703002041 	0 	0.397419814161 	0 	0
0.370078740157 	-0.100706965218 	-0.090183424441 	0 	0.223830908269 	0 	0 	-0.241933620328 	-0.16689841736 	0 	0.358414428295 	0 	0
0.377952755906 	-0.0916052464663 	-0.0890791336674 	0 	0.197431330563 	0 	0 	-0.218963873022 	-0.166513600595 	0 	0.321115471368 	0 	0
0.385826771654 	-0.0817706752257 	-0.0884216341454 	0 	0.173247758098 	0 	0 	-0.194856371601 	-0.166644538725 	0 	0.28560383756 	0 	0
0.393700787402 	-0.0711787523493 	-0.0881964924253 	0 	0.151156339707 	0 	0 	-0.169643904134 	-0.167281200188 	0 	0.251941076224 	0 	0
0.40157480315 	-0.0597961869338 	-0.0883265936363 	0 	0.130976046956 	0 	0 	-0.143324509039 	-0.16829582125 	0 	0.220095965143 	0 	0
0.409448818898 	-0.0475606581084 	-0.0887739856047 	0 	0.112487832565 	0 	0 	-0.115851893373 	-0.169630792455 	0 	0.18993344708 	0 	0
0.417322834646 	-0.0344284855827 	-0.0894071025097 	0 	0.0954437228438 	0 	0 	-0.0872013162397 	-0.171052330432 	0 	0.161258907541 	0 	0
0.425196850394 	-0.0204360250759 	-0.0901011291507 	0 	0.0796351826515 	0 	0 	-0.0575288853916 	-0.172346354915 	0 	0.133901939217 	0 	0
0.433070866142 	-0.00569488234344 	-0.0907184278159 	0 	0.0648885823369 	0 	0 	-0.0271304822755 	-0.173282625549 	0 	0.107724866532 	0 	0
0.44094488189 	0.0097965655584 	-0.091194905644 	0 	0.0510788434181 	0 	0 	0.00392709816373 	-0.173752815902 	0 	0.0826333755705 	0 	0
0.448818897638 	0.0260939838346 	-0.0915462226927 	0 	0.0381031880547 	0 	0 	0.0356649255378 	-0.173795698841 	0 	0.058530506466 	0 	0
0.456692913386 	0.0431742545917 	-0.0915370483845 	0 	0.0258165057447 	0 	0 	0.0680185993668 	-0.172989879752 	0 	0.0352945294723 	0 	0
0.464566929134 	0.0610340066328 	-0.0910700808711 	0 	0.0141477609727 	0 	0 	0.100925643872 	-0.171173280867 	0 	0.0128891503356 	0 	0
0.472440944882 	0.0797590958627 	-0.0901979453 	0 	0.0030659842936 	0 	0 	0.134433326575 	-0.168462570082 	0 	-0.00870396686419 	0 	0
0.48031496063 	0.0994957105088 	-0.0888023920316 	0 	-0.00749424145866 	0 	0 	0.1687256392 	-0.16465076331 	0 	-0.0295273501852 	0 	0
0.488188976378 	0.120281932807 	-0.0868108275265 	0 	-0.0175599089551 	0 	0 	0.203764433298 	-0.159639622783 	0 	-0.0495751720149 	0 	0
0.496062992126 	0.142077516827 	-0.0841138852817 	0 	-0.0271447129048 	0 	0 	0.239385769825 	-0.153280703465 	0 	-0.0688132125393 	0 	0
0.503937007874 	0.164792687945 	-0.0806187437219 	0 	-0.0362517190609 	0 	0 	0.275356152607 	-0.145471400211 	0 	-0.0872018166075 	0 	0
0.511811023622 	0.188175248617 	-0.0762286198007 	0 	-0.0449541425137 	0 	0 	0.311221178337 	-0.136135695959 	0 	-0.104871974723 	0 	0
0.51968503937 	0.212261571159 	-0.0708634042591 	0 	-0.0534586078025 	0 	0 	0.346968956517 	-0.125217802203 	0 	-0.122283601354 	0 	0
0.527559055118 	0.237245530331 	-0.0644647952475 	0 	-0.0615412986525 	0 	0 	0.382806617298 	-0.112644176058 	0 	-0.13894522616 	0 	0
0.535433070866 	0.263114557922 	-0.0569622928544 	0 	-0.0688872153677 	0 	0 	0.418623082627 	-0.098347584751 	0 	-0.154153822055 	0 	0
0.543307086614 	0.289954404458 	-0.0482772152288 	0 	-0.0756041703447 	0 	0 	0.454429085723 	-0.0823019764039 	0 	-0.168176478894 	0 	0
0.551181102362 	0.317887167944 	-0.0383298417626 	0 	-0.0818198990342 	0 	0 	0.490266199312 	-0.064486809784 	0 	-0.181365892368 	0 	0
0.55905511811 	0.346991283504 	-0.0270344248071 	0 	-0.0875639246008 	0 	0 	0.526101682761 	-0.044875315777 	0 	-0.193875032891 	0 	0
0.566929133858 	0.377239688008 	-0.0142783849532 	0 	-0.0927021204642 	0 	0 	0.561771339397 	-0.0234007338008 	0 	-0.20548578336 	0 	0
0.574803149606 	0.408657414851 	8.13291630387e-05 	0 	-0.0970736374415 	0 	0 	0.597164619624 	3.51545707248e-05 	0 	-0.215933490784 	0 	0
0.582677165354 	0.441324543753 	0.0161983068725 	0 	-0.100555546912 	0 	0 	0.632224860351 	0.0255237621453 	0 	-0.225075283951 	0 	0
0.590551181102 	0.475301007852 	0.0342293129075 	0 	-0.103025920213 	0 	0 	0.666852804229 	0.0531354315904 	0 	-0.232809297667 	0 	0
0.59842519685 	0.510674305399 	0.0543318170826 	0 	-0.104347498655 	0 	0 	0.700965577087 	0.0829179655616 	0 	-0.239038848259 	0 	0
0.606299212598 	0.547453863401 	0.0766661961788 	0 	-0.104355185255 	0 	0 	0.734389053757 	0.114901836196 	0 	-0.243644436339 	0 	0
0.614173228346 	0.585675865531 	0.101391507169 	0 	-0.102896654778 	0 	0 	0.766969645859 	0.149097600763 	0 	-0.246589603232 	0 	0
0.622047244094 	0.625361646432 	0.128663274928 	0 	-0.099888370958 	0 	0 	0.798535811788 	0.185513312923 	0 	-0.248067967508 	0 	0
0.629921259843 	0.666515785305 	0.158672830423 	0 	-0.095095808513 	0 	0 	0.828890621287 	0.224173443022 	0 	-0.2479591831 	0 	0
0.637795275591 	0.709144016718 	0.191631585717 	0 	-0.0882436357089 	0 	0 	0.857831318745 	0.265113571082 	0 	-0.246114859504 	0 	0
0.645669291339 	0.753261292408 	0.227783265285 	0 	-0.0790490903961 	0 	0 	0.88514712308 	0.308389455941 	0 	-0.242466848247 	0 	0
0.653543307087 	0.798927932317 	0.267434901254 	0 	-0.0670457425325 	0 	0 	0.910644030654 	0.354065475143 	0 	-0.236609946656 	0 	0
0.661417322835 	0.846196568533 	0.310920656482 	0 	-0.0516952630139 	0 	0 	0.934103574371 	0.40217881405 	0 	-0.22809868362 	0 	0
0.669291338583 	0.895093112429 	0.35859844089 	0 	-0.0323629316961 	0 	0 	0.955274735196 	0.452723537878 	0 	-0.216410525676 	0 	0
0.677165354331 	0.945611029033 	0.410830140387 	0 	-0.0083068280423 	0 	0 	0.973887261321 	0.505612265452 	0 	-0.200929329982 	0 	0
0.685039370079 	0.997775846315 	0.467973691025 	0 	0.0212949116736 	0 	0 	0.989715071084 	0.560658671842 	0 	-0.181026768211 	0 	0
0.692913385827 	1.05172892057 	0.530440299999 	0 	0.0573411951014 	0 	0 	1.00261924297 	0.617636760641 	0 	-0.156146642144 	0 	0
0.700787401575 	1.10648507465 	0.598418221495 	0 	0.100768343777 	0 	0 	1.01174213528 	0.676298507586 	0 	-0.125821683553 	0 	0
0.708661417323 	1.16116537388 	0.672007507263 	0 	0.152531489547 	0 	0 	1.01640499147 	0.736272628524 	0 	-0.089696185935 	0 	0
0.716535433071 	1.2174608191 	0.751821947039 	0 	0.213706516464 	0 	0 	1.01767562801 	0.797029533572 	0 	-0.0475175632428 	0 	0
0.724409448819 	1.27554654393 	0.838186498761 	0 	0.285423022475 	0 	0 	1.01566280598 	0.858066116421 	0 	0.000912638389432 	0 	0
0.732283464567 	1.33328571406 	0.930823177569 	0 	0.368809214021 	0 	0 	1.00910624067 	0.918917099448 	0 	0.0557664048658 	0 	0
0.740157480315 	1.39033532168 	1.02990339962 	0 	0.465217436155 	0 	0 	0.997934347976 	0.979101027225 	0 	0.11718131831 	0 	0
0.748031496063 	1.44668997434 	1.13567013415 	0 	0.576159115835 	0 	0 	0.982356504391 	1.03810324283 	0 	0.185274851622 	0 	0
0.755905511811 	1.50140972476 	1.24800603684 	0 	0.703209124869 	0 	0 	0.962138428269 	1.09534956312 	0 	0.260159636558 	0 	0
0.763779527559 	1.55375318876 	1.36675807852 	0 	0.848051429893 	0 	0 	0.937279664526 	1.15022635401 	0 	0.341886344342 	0 	0
0.771653543307 	1.60295253126 	1.49156156468 	0 	1.01228627375 	0 	0 	0.907913845016 	1.202075992 	0 	0.430313525863 	0 	0
0.779527559055 	1.64807750629 	1.62193140057 	0 	1.19771225038 	0 	0 	0.874182345272 	1.2502286064 	0 	0.525367591999 	0 	0
0.787401574803 	1.68805059456 	1.75722424354 	0 	1.40628832527 	0 	0 	0.836236359799 	1.29402009305 	0 	0.626992875717 	0 	0
0.795275590551 	1.72160634009 	1.89645378294 	0 	1.63983273038 	0 	0 	0.794239994267 	1.332802234 	0 	0.734919942732 	0 	0
0.803149606299 	1.74751406337 	2.0383950703 	0 	1.90012050143 	0 	0 	0.748491172566 	1.36592366016 	0 	0.848799816775 	0 	0
0.811023622047 	1.76433805508 	2.18084751562 	0 	2.18736542034 	0 	0 	0.699431876889 	1.39274917012 	0 	0.96757129647 	0 	0
0.818897637795 	1.77086126973 	2.32111769445 	0 	2.50058677754 	0 	0 	0.647700708381 	1.41277255012 	0 	1.08978893821 	0 	0
0.826771653543 	1.76547389164 	2.45608733049 	0 	2.83899322265 	0 	0 	0.593979951932 	1.42520533795 	0 	1.214791291 	0 	0
0.834645669291 	1.74730423078 	2.58300897505 	0 	3.20145477167 	0 	0 	0.538929416023 	1.42972283919 	0 	1.34165521865 	0 	0
0.842519685039 	1.71542277757 	2.69806318667 	0 	3.58409649704 	0 	0 	0.483204415198 	1.4261581143 	0 	1.46879595372 	0 	0
0.850393700787 	1.66746882046 	2.79473670366 	0 	3.9784910806 	0 	0 	0.427406616505 	1.41380261517 	0 	1.5944024352 	0 	0
0.858267716535 	1.60218279977 	2.86638570704 	0 	4.37262599297 	0 	0 	0.372309074291 	1.39238313917 	0 	1.71611203374 	0 	0
0.866141732283 	1.51898979383 	2.90603272235 	0 	4.75061660446 	0 	0 	0.318838008518 	1.36172469246 	0 	1.83136558314 	0 	0
0.874015748031 	1.41767171294 	2.90600020444 	0 	5.0912587566 	0 	0 	0.267981466341 	1.32161887416 	0 	1.93724361292 	0 	0
0.88188976378 	1.29942423711 	2.85960502342 	0 	5.36898686396 	0 	0 	0.220775358511 	1.27223289326 	0 	2.03030428068 	0 	0
0.889763779528 	1.16730558807 	2.76317858437 	0 	5.55775797358 	0 	0 	0.178097068054 	1.21427932401 	0 	2.10701041515 	0 	0
0.897637795276 	1.02689890753 	2.61944934574 	0 	5.63998765955 	0 	0 	0.140405150566 	1.14938958123 	0 	2.16467769945 	0 	0
0.905511811024 	0.88663759096 	2.44131890992 	0 	5.6209362738 	0 	0 	0.107608878713 	1.08045079184 	0 	2.20339203298 	0 	0
0.913385826772 	0.755967747077 	2.25095460719 	0 	5.53733763172 	0 	0 	0.0790140833494 	1.01125412999 	0 	2.22777151243 	0 	0
0.92125984252 	0.638980652071 	2.06271475301 	0 	5.41627413497 	0 	0 	0.0529349874902 	0.944504390919 	0 	2.24131899176 	0 	0
0.929133858268 	0.531436790742 	1.87229425207 	0 	5.24562956265 	0 	0 	0.0264377938538 	0.879529219446 	0 	2.24226341207 	0 	0
0.937007874016 	0.423908713901 	1.65515891788 	0 	4.94502918228 	0 	0 	-0.00318223412887 	0.811751366892 	0 	2.21656918836 	0 	0
0.944881889764 	0.319081500593 	1.40399447169 	0 	4.43211589681 	0 	0 	-0.03182875587 	0.741258007613 	0 	2.14246683701 	0 	0
0.952755905512 	0.243571052943 	1.18370856134 	0 	3.7927421248 	0 	0 	-0.0520303883372 	0.69086690913 	0 	2.01849363471 	0 	0
0.96062992126 	0.233864845673 	1.10894901962 	0 	3.3373187222 	0 	0 	-0.0556616127778 	0.700155876051 	0 	1.90142916804 	0 	0
0.968503937008 	0.284744844268 	1.21023019341 	0 	3.24747028445 	0 	0 	-0.0724477911359 	0.782594478261 	0 	1.84335997545 	0 	0
0.976377952756 	0.241108105113 	1.16866420775 	0 	2.89381900654 	0 	0 	-0.198323556223 	0.842965750163 	0 	1.71193658134 	0 	0
0.984251968504 	0.155070173614 	1.07634762476 	0 	2.73252830503 	0 	0 	-0.332255993031 	0.839790971243 	0 	1.67279094945 	0 	0
0.992125984252 	0.0812294108707 	1.0249875523 	0 	3.16831547289 	0 	0 	-0.40022938401 	0.748584655214 	0 	1.84374828686 	0 	0
1 	-0.0504232176576 	0.851076449931 	0 	3.57628688978 	0 	0 	-0.439606738958 	0.663067513185 	0 	1.93589929778 	0 	0
