0 	0.151123658053 	-0.194385928625 	0 	-0.000105231483014 	0 	0 	0.20189097313 	-0.348083919883 	0 	-0.0659799709538 	0 	0
0.00787401574803 	0.1412026935 	-0.186872162499 	0 	-0.000969109196724 	0 	0 	0.195792726291 	-0.342290986801 	0 	-0.0646115391707 	0 	0
0.0157480314961 	0.132073337046 	-0.179677520639 	0 	-0.00203506546252 	0 	0 	0.184598339201 	-0.33112386375 	0 	-0.0625419833203 	0 	0
0.0236220472441 	0.124348843319 	-0.173118358667 	0 	-0.00330317932592 	0 	0 	0.175167495399 	-0.32078394348 	0 	-0.0613655472011 	0 	0
0.0314960629921 	0.117832671124 	-0.167176166868 	0 	-0.00460863461849 	0 	0 	0.167268327748 	-0.311259242071 	0 	-0.0606997724408 	0 	0
0.0393700787402 	0.112464319613 	-0.161830244644 	0 	-0.00597640114937 	0 	0 	0.160870870428 	-0.302557439596 	0 	-0.0605661076544 	0 	0
0.0472440944882 	0.108160101981 	-0.157068649673 	0 	-0.00739100319728 	0 	0 	0.155891308839 	-0.294693445827 	0 	-0.0609080034376 	0 	0
0.0551181102362 	0.104839316038 	-0.152878183446 	0 	-0.00884110087462 	0 	0 	0.15224020321 	-0.28767727716 	0 	-0.0616788956815 	0 	0
0.0629921259843 	0.102428657663 	-0.149245763586 	0 	-0.010311598901 	0 	0 	0.149831151181 	-0.281513102562 	0 	-0.0628258886556 	0 	0
0.0708661417323 	0.100855085328 	-0.146155635589 	0 	-0.0117887154026 	0 	0 	0.148570794522 	-0.276197264103 	0 	-0.0642994332338 	0 	0
0.0787401574803 	0.100053545622 	-0.14359110841 	0 	-0.0132597861041 	0 	0 	0.148372599342 	-0.271719847259 	0 	-0.0660536073785 	0 	0
0.0866141732283 	0.0999687392804 	-0.141534717266 	0 	-0.0147139521145 	0 	0 	0.149160935858 	-0.268064968096 	0 	-0.0680476080985 	0 	0
0.0944881889764 	0.100547343366 	-0.139967850327 	0 	-0.0161417959015 	0 	0 	0.150858711531 	-0.265212124135 	0 	-0.0702450827256 	0 	0
0.102362204724 	0.101741444369 	-0.138868529346 	0 	-0.0175349526693 	0 	0 	0.153395303056 	-0.263131050514 	0 	-0.0726118147901 	0 	0
0.110236220472 	0.103514202843 	-0.138226477394 	0 	-0.0188831593607 	0 	0 	0.156710141251 	-0.261809721129 	0 	-0.0751171672661 	0 	0
0.11811023622 	0.10583810534 	-0.138030713272 	0 	-0.0201785454458 	0 	0 	0.160755909837 	-0.261231569316 	0 	-0.0777365191328 	0 	0
0.125984251969 	0.108678309764 	-0.138243746322 	0 	-0.0214215518629 	0 	0 	0.165482128236 	-0.261330150297 	0 	-0.0804506766288 	0 	0
0.133858267717 	0.112014729943 	-0.138853556772 	0 	-0.0226069860232 	0 	0 	0.170849799884 	-0.262083267485 	0 	-0.0832427819208 	0 	0
0.141732283465 	0.115838030059 	-0.139858405933 	0 	-0.0237264874131 	0 	0 	0.176831823059 	-0.263484624244 	0 	-0.086095315218 	0 	0
0.149606299213 	0.120132054677 	-0.141237550362 	0 	-0.0247765778677 	0 	0 	0.183396367938 	-0.265492310389 	0 	-0.0889922643738 	0 	0
0.157480314961 	0.124886468086 	-0.142977906166 	0 	-0.0257536477855 	0 	0 	0.190516596537 	-0.268077354136 	0 	-0.0919220926926 	0 	0
0.165354330709 	0.130090191768 	-0.145066399479 	0 	-0.0266551256387 	0 	0 	0.198163304851 	-0.271210568107 	0 	-0.0948762570489 	0 	0
0.173228346457 	0.135726448651 	-0.147488772883 	0 	-0.0274788741852 	0 	0 	0.206297704036 	-0.274861357777 	0 	-0.0978472930536 	0 	0
0.181102362205 	0.141767350848 	-0.150228569818 	0 	-0.0282237620737 	0 	0 	0.214863757756 	-0.278997424021 	0 	-0.100829604633 	0 	0
0.188976377953 	0.148169211494 	-0.153265493295 	0 	-0.0288900853956 	0 	0 	0.223782472573 	-0.283583158189 	0 	-0.103819520791 	0 	0
0.196850393701 	0.15488084415 	-0.156576414662 	0 	-0.0294793224323 	0 	0 	0.232966207241 	-0.288579962421 	0 	-0.106814755272 	0 	0
0.204724409449 	0.161881447845 	-0.160142398727 	0 	-0.0299926128086 	0 	0 	0.242376375071 	-0.293950368639 	0 	-0.109813119293 	0 	0
0.212598425197 	0.169243078098 	-0.163961576656 	0 	-0.0304282620659 	0 	0 	0.252113603078 	-0.299666113646 	0 	-0.112811406621 	0 	0
0.220472440945 	0.177150137839 	-0.168055012499 	0 	-0.0307812035387 	0 	0 	0.262438342128 	-0.305712610431 	0 	-0.115806809164 	0 	0
0.228346456693 	0.185774933011 	-0.172443299886 	0 	-0.031048678669 	0 	0 	0.273581057386 	-0.312075395024 	0 	-0.118801924525 	0 	0
0.236220472441 	0.195048494115 	-0.177098421464 	0 	-0.0312398248735 	0 	0 	0.285416294281 	-0.318710650827 	0 	-0.121808393097 	0 	0
0.244094488189 	0.204619058058 	-0.181932026427 	0 	-0.0313753617502 	0 	0 	0.29742598314 	-0.325538782282 	0 	-0.124840357432 	0 	0
0.251968503937 	0.214215419268 	-0.186870459911 	0 	-0.0314696510582 	0 	0 	0.309228478377 	-0.332490956701 	0 	-0.127901155897 	0 	0
0.259842519685 	0.224064715388 	-0.19194569642 	0 	-0.0315143079583 	0 	0 	0.321142638575 	-0.339562266189 	0 	-0.130981939683 	0 	0
0.267716535433 	0.234750259186 	-0.197267811361 	0 	-0.0314895979302 	0 	0 	0.33395262752 	-0.346791601025 	0 	-0.134078878976 	0 	0
0.275590551181 	0.246610360183 	-0.202897073655 	0 	-0.0313913686546 	0 	0 	0.348074364004 	-0.354187412026 	0 	-0.137205305561 	0 	0
0.283464566929 	0.259488758317 	-0.20878949322 	0 	-0.0312359948901 	0 	0 	0.363247455674 	-0.361701639622 	0 	-0.140380553971 	0 	0
0.291338582677 	0.273132555521 	-0.214882612959 	0 	-0.031038279262 	0 	0 	0.379094931458 	-0.369281309611 	0 	-0.143612821714 	0 	0
0.299212598425 	0.287592043073 	-0.221185011653 	0 	-0.0307951025609 	0 	0 	0.395640087258 	-0.376918354937 	0 	-0.146899068758 	0 	0
0.307086614173 	0.303101360725 	-0.227748201953 	0 	-0.0304966140003 	0 	0 	0.413129492027 	-0.384629358432 	0 	-0.150239462425 	0 	0
0.314960629921 	0.319761037629 	-0.234591795701 	0 	-0.0301434147707 	0 	0 	0.431628549397 	-0.392411327033 	0 	-0.153644470789 	0 	0
0.322834645669 	0.337495971971 	-0.241693514925 	0 	-0.0297456337607 	0 	0 	0.450985420924 	-0.400238063722 	0 	-0.15712776583 	0 	0
0.330708661417 	0.356221951488 	-0.249026009096 	0 	-0.0293135609131 	0 	0 	0.471046090963 	-0.408079089695 	0 	-0.160699547409 	0 	0
0.338582677165 	0.375942232054 	-0.256589417913 	0 	-0.0288479663816 	0 	0 	0.4917608061 	-0.415926734257 	0 	-0.164362484514 	0 	0
0.346456692913 	0.396723488481 	-0.264410887311 	0 	-0.0283398154472 	0 	0 	0.513144558077 	-0.423799866711 	0 	-0.16811344613 	0 	0
0.354330708661 	0.418658676272 	-0.272529051197 	0 	-0.0277758597149 	0 	0 	0.535232554629 	-0.431727123776 	0 	-0.171947474484 	0 	0
0.362204724409 	0.441852719754 	-0.280998243809 	0 	-0.0271335731267 	0 	0 	0.558058235382 	-0.43975517279 	0 	-0.175851192396 	0 	0
0.370078740157 	0.466371668856 	-0.289873423841 	0 	-0.0263847790274 	0 	0 	0.581602128915 	-0.447937529173 	0 	-0.179803352034 	0 	0
0.377952755906 	0.492178121569 	-0.299183342864 	0 	-0.0255061909835 	0 	0 	0.605738614208 	-0.456311213892 	0 	-0.183782416244 	0 	0
0.385826771654 	0.519122995047 	-0.308929275448 	0 	-0.0244792857326 	0 	0 	0.630240908865 	-0.464898798399 	0 	-0.187765584195 	0 	0
0.393700787402 	0.546967091313 	-0.319086997358 	0 	-0.023289240193 	0 	0 	0.654817737549 	-0.473707094907 	0 	-0.191725193493 	0 	0
0.40157480315 	0.575378640815 	-0.329599028612 	0 	-0.0219278512839 	0 	0 	0.679125631017 	-0.482718090038 	0 	-0.195627863554 	0 	0
0.409448818898 	0.603923182698 	-0.340370021642 	0 	-0.0203981380188 	0 	0 	0.702769444758 	-0.491889092056 	0 	-0.199441674598 	0 	0
0.417322834646 	0.632082914041 	-0.351267323362 	0 	-0.0187211588348 	0 	0 	0.725328203798 	-0.501154673688 	0 	-0.20315070353 	0 	0
0.425196850394 	0.659302139221 	-0.362118298517 	0 	-0.0169428987444 	0 	0 	0.746403502165 	-0.510415473776 	0 	-0.206762837709 	0 	0
0.433070866142 	0.685058924544 	-0.372739627806 	0 	-0.0151177663983 	0 	0 	0.765669913289 	-0.519559073304 	0 	-0.210288661538 	0 	0
0.44094488189 	0.708935917839 	-0.382986590632 	0 	-0.013280101086 	0 	0 	0.782906682633 	-0.528504439565 	0 	-0.213712409077 	0 	0
0.448818897638 	0.730624102753 	-0.392752025445 	0 	-0.0114468638044 	0 	0 	0.797986857808 	-0.537196761939 	0 	-0.216997818786 	0 	0
0.456692913386 	0.74985948789 	-0.401943100554 	0 	-0.00963150942271 	0 	0 	0.810817857293 	-0.545592676352 	0 	-0.220107511572 	0 	0
0.464566929134 	0.766311101592 	-0.410454912297 	0 	-0.00785302281193 	0 	0 	0.821246285167 	-0.553654804107 	0 	-0.223012995562 	0 	0
0.472440944882 	0.779341576174 	-0.41810578591 	0 	-0.00614748717426 	0 	0 	0.828874419313 	-0.56132600439 	0 	-0.225685484275 	0 	0
0.48031496063 	0.788604300949 	-0.424771821135 	0 	-0.00452787077221 	0 	0 	0.83353127384 	-0.568545083459 	0 	-0.228058014077 	0 	0
0.488188976378 	0.794702886452 	-0.430546257548 	0 	-0.00295918812624 	0 	0 	0.835771651417 	-0.575285323223 	0 	-0.230047482586 	0 	0
0.496062992126 	0.798595667165 	-0.435570873406 	0 	-0.00145247490297 	0 	0 	0.836412358937 	-0.581508135871 	0 	-0.231691695995 	0 	0
0.503937007874 	0.799267547229 	-0.439528245287 	0 	-0.00016105327442 	0 	0 	0.83470879922 	-0.587120987938 	0 	-0.233161705492 	0 	0
0.511811023622 	0.796126366446 	-0.442313036827 	0 	0.000948123459948 	0 	0 	0.830185214374 	-0.592134300345 	0 	-0.234328464452 	0 	0
0.51968503937 	0.790899358477 	-0.444448414322 	0 	0.00212852194893 	0 	0 	0.824124213124 	-0.596721187196 	0 	-0.234877143676 	0 	0
0.527559055118 	0.783791206845 	-0.446009105008 	0 	0.00339107810888 	0 	0 	0.816643896917 	-0.600943116963 	0 	-0.234834594355 	0 	0
0.535433070866 	0.774081024091 	-0.446765496116 	0 	0.0046396667482 	0 	0 	0.807170841509 	-0.604720588427 	0 	-0.234286293159 	0 	0
0.543307086614 	0.761648378373 	-0.446601010879 	0 	0.00587681750432 	0 	0 	0.795617086584 	-0.607901964501 	0 	-0.233090905963 	0 	0
0.551181102362 	0.746214139271 	-0.445237125362 	0 	0.00704881705312 	0 	0 	0.78182579348 	-0.610141109352 	0 	-0.231069628007 	0 	0
0.55905511811 	0.72767531503 	-0.442568437127 	0 	0.00811563749997 	0 	0 	0.765671125446 	-0.611316908178 	0 	-0.228205594442 	0 	0
0.566929133858 	0.706446178926 	-0.438859232694 	0 	0.00914861385424 	0 	0 	0.7472771424 	-0.611698145877 	0 	-0.224585674856 	0 	0
0.574803149606 	0.682800974718 	-0.43389536464 	0 	0.0100049233419 	0 	0 	0.726929498785 	-0.610889227551 	0 	-0.220250717147 	0 	0
0.582677165354 	0.656992180051 	-0.427503043158 	0 	0.0105866706719 	0 	0 	0.704878218723 	-0.608530729991 	0 	-0.215182465705 	0 	0
0.590551181102 	0.629461845704 	-0.419982994048 	0 	0.0110357353125 	0 	0 	0.681272401961 	-0.604875526466 	0 	-0.209335119317 	0 	0
0.59842519685 	0.600471288773 	-0.411309776658 	0 	0.0113220483114 	0 	0 	0.656289668354 	-0.599765191783 	0 	-0.202721567642 	0 	0
0.606299212598 	0.570291453264 	-0.401449977418 	0 	0.0114042988441 	0 	0 	0.63013207298 	-0.593023992951 	0 	-0.195379866296 	0 	0
0.614173228346 	0.539244668743 	-0.390475208881 	0 	0.0112935081395 	0 	0 	0.603001486949 	-0.58460720863 	0 	-0.187350744298 	0 	0
0.622047244094 	0.507634985783 	-0.378405607936 	0 	0.0109687929041 	0 	0 	0.575130519093 	-0.574399836565 	0 	-0.178704123859 	0 	0
0.629921259843 	0.475781595874 	-0.365293529656 	0 	0.010426794714 	0 	0 	0.546767935557 	-0.562326860925 	0 	-0.169516072966 	0 	0
0.637795275591 	0.443994759782 	-0.351185938385 	0 	0.00965776735158 	0 	0 	0.518178210628 	-0.548310843242 	0 	-0.159886773352 	0 	0
0.645669291339 	0.4125787029 	-0.336136204508 	0 	0.00865331889068 	0 	0 	0.489638495891 	-0.532290206545 	0 	-0.149935840678 	0 	0
0.653543307087 	0.381827965688 	-0.320199977128 	0 	0.00740331554158 	0 	0 	0.461437603891 	-0.514217500442 	0 	-0.139805607179 	0 	0
0.661417322835 	0.352026673341 	-0.303436592142 	0 	0.00589770154218 	0 	0 	0.433874292068 	-0.49406401439 	0 	-0.129657919064 	0 	0
0.669291338583 	0.323446955424 	-0.285909935106 	0 	0.00412713114248 	0 	0 	0.407253973629 	-0.471824583456 	0 	-0.119672600003 	0 	0
0.677165354331 	0.296347643477 	-0.267689967502 	0 	0.00208418893461 	0 	0 	0.381884692129 	-0.447523243123 	0 	-0.110044211251 	0 	0
0.685039370079 	0.270972776962 	-0.248853067212 	0 	-0.000235318945568 	0 	0 	0.358073067285 	-0.421216549365 	0 	-0.100976421054 	0 	0
0.692913385827 	0.247547885277 	-0.22948026594 	0 	-0.00283180172939 	0 	0 	0.336117580328 	-0.39299362659 	0 	-0.0926755626312 	0 	0
0.700787401575 	0.226274034309 	-0.209655573939 	0 	-0.00570394361975 	0 	0 	0.316297116617 	-0.362977261228 	0 	-0.0853497746653 	0 	0
0.708661417323 	0.207330125619 	-0.189467759413 	0 	-0.00887227857791 	0 	0 	0.298867810268 	-0.331334631338 	0 	-0.0792564294634 	0 	0
0.716535433071 	0.190896403862 	-0.168998506602 	0 	-0.0124945355117 	0 	0 	0.284096416736 	-0.298279026657 	0 	-0.0749377820573 	0 	0
0.724409448819 	0.177189705325 	-0.148346487806 	0 	-0.0165581735042 	0 	0 	0.272318397438 	-0.2640097712 	0 	-0.0725565860126 	0 	0
0.732283464567 	0.166506567028 	-0.127627183433 	0 	-0.0207335362027 	0 	0 	0.26400302218 	-0.228694291446 	0 	-0.0715787322788 	0 	0
0.740157480315 	0.158802934798 	-0.106899592754 	0 	-0.0250052877569 	0 	0 	0.259093172377 	-0.192584521178 	0 	-0.0721190186698 	0 	0
0.748031496063 	0.153602629963 	-0.0862234340407 	0 	-0.0297808114717 	0 	0 	0.256840194428 	-0.156067964416 	0 	-0.0751865675777 	0 	0
0.755905511811 	0.151181798639 	-0.0657627881374 	0 	-0.0350437248663 	0 	0 	0.257644260689 	-0.119505720563 	0 	-0.080858800775 	0 	0
0.763779527559 	0.15245995436 	-0.0456859157212 	0 	-0.040530448469 	0 	0 	0.262904207061 	-0.0832074154599 	0 	-0.0886315392517 	0 	0
0.771653543307 	0.156932253753 	-0.0260359735487 	0 	-0.0463460429738 	0 	0 	0.271823615419 	-0.0474575284645 	0 	-0.0987480760211 	0 	0
0.779527559055 	0.164383005285 	-0.00694285371921 	0 	-0.0525362324406 	0 	0 	0.28402644822 	-0.0126626283022 	0 	-0.111295521344 	0 	0
0.787401574803 	0.175206355251 	0.0114252889898 	0 	-0.0590590246518 	0 	0 	0.300065417845 	0.0207682058998 	0 	-0.126132827348 	0 	0
0.795275590551 	0.189224084151 	0.0289517503127 	0 	-0.0659307469251 	0 	0 	0.319609183421 	0.0524895043241 	0 	-0.143198211125 	0 	0
0.803149606299 	0.206557851448 	0.04548631035 	0 	-0.0731509183281 	0 	0 	0.3427610717 	0.0821161438128 	0 	-0.162359699239 	0 	0
0.811023622047 	0.227275698744 	0.0608959186636 	0 	-0.0807240438525 	0 	0 	0.369515963129 	0.10930623716 	0 	-0.183464690687 	0 	0
0.818897637795 	0.251515080273 	0.0750225955526 	0 	-0.0886444884257 	0 	0 	0.399932771182 	0.133685268802 	0 	-0.206306053718 	0 	0
0.826771653543 	0.279501944454 	0.087686824546 	0 	-0.0969152464562 	0 	0 	0.434142106632 	0.15485559104 	0 	-0.230668707131 	0 	0
0.834645669291 	0.311608777842 	0.0986636897022 	0 	-0.105536863121 	0 	0 	0.472397982861 	0.172352436877 	0 	-0.256297721762 	0 	0
0.842519685039 	0.348474996861 	0.107588258913 	0 	-0.114556415394 	0 	0 	0.515200723001 	0.185487718908 	0 	-0.282994738307 	0 	0
0.850393700787 	0.391316831007 	0.114238459995 	0 	-0.124077456717 	0 	0 	0.563489522189 	0.19383806633 	0 	-0.310791477568 	0 	0
0.858267716535 	0.442054741841 	0.118957530147 	0 	-0.134132340258 	0 	0 	0.618501596834 	0.197944808641 	0 	-0.339853399012 	0 	0
0.866141732283 	0.50273760617 	0.122013371522 	0 	-0.144597244304 	0 	0 	0.681138397223 	0.198249118137 	0 	-0.369965967995 	0 	0
0.874015748031 	0.575275973838 	0.122044648304 	0 	-0.155418339359 	0 	0 	0.751986106692 	0.192697777586 	0 	-0.400433476998 	0 	0
0.88188976378 	0.664618437446 	0.119112442623 	0 	-0.166744359013 	0 	0 	0.833355795187 	0.181573897443 	0 	-0.43191820032 	0 	0
0.889763779528 	0.777177207674 	0.114191880579 	0 	-0.178582596805 	0 	0 	0.927380933961 	0.166777582412 	0 	-0.46525260055 	0 	0
0.897637795276 	0.919552881577 	0.106886433788 	0 	-0.190900994998 	0 	0 	1.03486846703 	0.148294914666 	0 	-0.500681839405 	0 	0
0.905511811024 	1.10097806157 	0.0973303778318 	0 	-0.203740649678 	0 	0 	1.15674936126 	0.127082580844 	0 	-0.539024704601 	0 	0
0.913385826772 	1.33332399191 	0.0860837280289 	0 	-0.217080251102 	0 	0 	1.29347476002 	0.104716754424 	0 	-0.581089447281 	0 	0
0.92125984252 	1.63020428027 	0.0737835369131 	0 	-0.230870204576 	0 	0 	1.44435309358 	0.0827853259504 	0 	-0.627543588321 	0 	0
0.929133858268 	2.00458336711 	0.0610639846056 	0 	-0.244997464214 	0 	0 	1.60673207159 	0.0626292831359 	0 	-0.678672516077 	0 	0
0.937007874016 	2.46876832649 	0.0485667248853 	0 	-0.25932843281 	0 	0 	1.777023086 	0.0452184890103 	0 	-0.734512708408 	0 	0
0.944881889764 	3.03660382695 	0.0364053578932 	0 	-0.273759425831 	0 	0 	1.95217527531 	0.0306329950559 	0 	-0.795026661148 	0 	0
0.952755905512 	3.73826331251 	0.0233563860498 	0 	-0.288183807539 	0 	0 	2.13296892955 	0.0177577773558 	0 	-0.860072806843 	0 	0
0.96062992126 	4.67203228874 	0.00613622686172 	0 	-0.302514431379 	0 	0 	2.33083793667 	0.00450799356244 	0 	-0.929729051548 	0 	0
0.968503937008 	6.1613692731 	-0.0216399146489 	0 	-0.316654330206 	0 	0 	2.57925729275 	-0.0111871419286 	0 	-1.0045065569 	0 	0
0.976377952756 	9.13527114072 	-0.0673324367836 	0 	-0.330822993201 	0 	0 	2.93575971275 	-0.0276996029474 	0 	-1.08739803391 	0 	0
0.984251968504 	17.8982004017 	-0.155923111703 	0 	-0.346538566413 	0 	0 	3.53320285117 	-0.0401411036826 	0 	-1.19133029938 	0 	0
0.992125984252 	88.1206134283 	-0.46113200916 	0 	-0.361349464746 	0 	0 	4.81730722353 	-0.0388003977401 	0 	-1.30244735931 	0 	0
1 	215.095276731 	-0.950585972636 	0 	-0.373871559054 	0 	0 	5.71761044108 	-0.0328435471976 	0 	-1.3537813568 	0 	0
1 	215.095276731 	-0.950585972636 	0 	-0.373871559054 	0 	0 	5.71761044108 	-0.0328435471976 	0 	-1.3537813568 	0 	0
