0 	0 	0 	0
0.00787401574803 	-0.00300284039438 	-4.06215637636e-06 	0
0.0157480314961 	-0.00589316482476 	-1.35200554378e-05 	0
0.0236220472441 	-0.00868072059588 	-3.01834233537e-05 	0
0.0314960629921 	-0.0113720294336 	-5.3107448662e-05 	0
0.0393700787402 	-0.0139736621665 	-8.20733460729e-05 	0
0.0472440944882 	-0.0164916977286 	-0.000116850994072 	0
0.0551181102362 	-0.0189319029879 	-0.000157316176922 	0
0.0629921259843 	-0.0212997249403 	-0.000203384463627 	0
0.0708661417323 	-0.023600289581 	-0.000255016533944 	0
0.0787401574803 	-0.0258384123779 	-0.000312217168233 	0
0.0866141732283 	-0.0280186309914 	-0.000375027863756 	0
0.0944881889764 	-0.0301452203351 	-0.000443527557586 	0
0.102362204724 	-0.0322222276744 	-0.000517820891331 	0
0.110236220472 	-0.0342534373479 	-0.000598038229614 	0
0.11811023622 	-0.0362422780916 	-0.000684380971422 	0
0.125984251969 	-0.0381920504251 	-0.000777071447583 	0
0.133858267717 	-0.0401059757838 	-0.000876357042333 	0
0.141732283465 	-0.0419869425697 	-0.000982538586857 	0
0.149606299213 	-0.0438375974366 	-0.00109593173329 	0
0.157480314961 	-0.0456604436533 	-0.00121689139001 	0
0.165354330709 	-0.0474577906102 	-0.00134581193073 	0
0.173228346457 	-0.0492317637381 	-0.00148312122345 	0
0.181102362205 	-0.0509843095838 	-0.00162928361945 	0
0.188976377953 	-0.052717199498 	-0.00178479980282 	0
0.196850393701 	-0.0544320321628 	-0.00195020753857 	0
0.204724409449 	-0.0561302296516 	-0.00212608338827 	0
0.212598425197 	-0.0578130238825 	-0.00231304589519 	0
0.220472440945 	-0.0594814381304 	-0.00251175912125 	0
0.228346456693 	-0.0611362947328 	-0.00272293001525 	0
0.236220472441 	-0.0627782875978 	-0.00294729265974 	0
0.244094488189 	-0.0644080832325 	-0.0031855913983 	0
0.251968503937 	-0.0660262908858 	-0.00343860223716 	0
0.259842519685 	-0.0676332225054 	-0.00370719738612 	0
0.267716535433 	-0.06922870861 	-0.00399236629847 	0
0.275590551181 	-0.0708123152847 	-0.00429512150817 	0
0.283464566929 	-0.0723837391567 	-0.00461640036783 	0
0.291338582677 	-0.0739427929076 	-0.00495712700416 	0
0.299212598425 	-0.0754890222339 	-0.00531835040748 	0
0.307086614173 	-0.0770215347558 	-0.00570126106811 	0
0.314960629921 	-0.0785391718986 	-0.00610709733859 	0
0.322834645669 	-0.0800406857251 	-0.00653708513263 	0
0.330708661417 	-0.0815247605751 	-0.00699245049516 	0
0.338582677165 	-0.0829899074261 	-0.00747446305614 	0
0.346456692913 	-0.0844343361137 	-0.0079844717173 	0
0.354330708661 	-0.0858560223904 	-0.00852387236619 	0
0.362204724409 	-0.0872528355429 	-0.00909406867775 	0
0.370078740157 	-0.0886224741181 	-0.00969649627989 	0
0.377952755906 	-0.0899624188329 	-0.0103326242228 	0
0.385826771654 	-0.0912700221382 	-0.0110039223373 	0
0.393700787402 	-0.0925425723831 	-0.0117118365486 	0
0.40157480315 	-0.0937772923329 	-0.0124577735998 	0
0.409448818898 	-0.0949713252619 	-0.0132431033592 	0
0.417322834646 	-0.0961217702004 	-0.0140691583115 	0
0.425196850394 	-0.0972258058208 	-0.0149372001869 	0
0.433070866142 	-0.0982808087656 	-0.015848387083 	0
0.44094488189 	-0.099284365168 	-0.01680376469 	0
0.448818897638 	-0.100234245317 	-0.0178042141761 	0
0.456692913386 	-0.101128306228 	-0.0188503835003 	0
0.464566929134 	-0.101964307257 	-0.0199426818845 	0
0.472440944882 	-0.102740074992 	-0.0210813403931 	0
0.48031496063 	-0.10345479755 	-0.0222664516897 	0
0.488188976378 	-0.104109769321 	-0.023497722032 	0
0.496062992126 	-0.104704965143 	-0.0247742871393 	0
0.503937007874 	-0.105235989006 	-0.0260949212658 	0
0.511811023622 	-0.105700310181 	-0.0274585146259 	0
0.51968503937 	-0.106103121106 	-0.0288635941466 	0
0.527559055118 	-0.106447710153 	-0.0303082232246 	0
0.535433070866 	-0.106732537378 	-0.031790128242 	0
0.543307086614 	-0.106958867364 	-0.0333064300703 	0
0.551181102362 	-0.107129631546 	-0.0348539826169 	0
0.55905511811 	-0.107245602562 	-0.0364292988767 	0
0.566929133858 	-0.107304391804 	-0.0380290175064 	0
0.574803149606 	-0.107305642534 	-0.0396487646444 	0
0.582677165354 	-0.107251728894 	-0.041283220477 	0
0.590551181102 	-0.107141639326 	-0.0429279477688 	0
0.59842519685 	-0.106972582956 	-0.0445779534173 	0
0.606299212598 	-0.106741866315 	-0.0462273835781 	0
0.614173228346 	-0.106445121479 	-0.0478704179177 	0
0.622047244094 	-0.106076474153 	-0.0495009066864 	0
0.629921259843 	-0.10562841364 	-0.0511124083708 	0
0.637795275591 	-0.105091531722 	-0.0526982482467 	0
0.645669291339 	-0.104454404755 	-0.0542515100739 	0
0.653543307087 	-0.103703400079 	-0.0557650787502 	0
0.661417322835 	-0.102822504159 	-0.0572316598411 	0
0.669291338583 	-0.101793134424 	-0.0586438107524 	0
0.677165354331 	-0.100593957998 	-0.0599939657146 	0
0.685039370079 	-0.0992007371177 	-0.0612744516872 	0
0.692913385827 	-0.097586220667 	-0.0624775182239 	0
0.700787401575 	-0.0957200276596 	-0.0635954589328 	0
0.708661417323 	-0.0935683190433 	-0.0646208072758 	0
0.716535433071 	-0.0910933595004 	-0.0655456998315 	0
0.724409448819 	-0.0882535362565 	-0.0663614448623 	0
0.732283464567 	-0.085003685365 	-0.067060145212 	0
0.740157480315 	-0.0812950440922 	-0.0676353617714 	0
0.748031496063 	-0.0770757800037 	-0.0680800893188 	0
0.755905511811 	-0.0722918479786 	-0.0683865609584 	0
0.763779527559 	-0.0668799724715 	-0.068547789562 	0
0.771653543307 	-0.0607725101242 	-0.0685567820209 	0
0.779527559055 	-0.0539010429725 	-0.0684066646706 	0
0.787401574803 	-0.0461900166954 	-0.0680913222845 	0
0.795275590551 	-0.0375593427392 	-0.0676048342317 	0
0.803149606299 	-0.027923836185 	-0.066941648807 	0
0.811023622047 	-0.017192679117 	-0.0660965945403 	0
0.818897637795 	-0.00526950705299 	-0.0650650202357 	0
0.826771653543 	0.00794823613191 	-0.0638430090613 	0
0.834645669291 	0.0225699946088 	-0.0624275376021 	0
0.842519685039 	0.0387137616649 	-0.060816703335 	0
0.850393700787 	0.0565065264847 	-0.059009045533 	0
0.858267716535 	0.076079517778 	-0.0570024029267 	0
0.866141732283 	0.0975653739527 	-0.0547959031106 	0
0.874015748031 	0.121114163283 	-0.0523910770545 	0
0.88188976378 	0.146896154836 	-0.049791274529 	0
0.889763779528 	0.175085049342 	-0.0470018144505 	0
0.897637795276 	0.20586615831 	-0.0440296306411 	0
0.905511811024 	0.239444541613 	-0.0408838078058 	0
0.913385826772 	0.276040421565 	-0.0375774129917 	0
0.92125984252 	0.315892223105 	-0.0341273946785 	0
0.929133858268 	0.359260508044 	-0.0305546935849 	0
0.937007874016 	0.406429379148 	-0.0268859342123 	0
0.944881889764 	0.457709339032 	-0.0231536358494 	0
0.952755905512 	0.513444401097 	-0.0193974171375 	0
0.96062992126 	0.574029346533 	-0.0156662418438 	0
0.968503937008 	0.639951467698 	-0.0120183581185 	0
0.976377952756 	0.711900594161 	-0.00851926909457 	0
0.984251968504 	0.791106831132 	-0.00530398910286 	0
0.992125984252 	0.88056070379 	-0.00255286525842 	0
1 	1 	0 	0
1 	1 	0 	0
